 vasp.5.4.1 24Jun15 (build Apr 24 2019 11:07:21) complex                        
  
 executed on           IFC91_ompi date 2021.11.08  09:34:18
 running on   36 total cores
 distrk:  each k-point on   36 cores,    1 groups
 distr:  one band on NCORES_PER_BAND=   1 cores,   36 groups


--------------------------------------------------------------------------------------------------------


 INCAR:
 POTCAR:   PAW_PBE Cs_sv 08Apr2002                
 POTCAR:   PAW_PBE In 08Apr2002                   
 POTCAR:   PAW_PBE Ag 06Sep2000                   
 POTCAR:    PAW_PBE Cl 17Jan2003                  

 ----------------------------------------------------------------------------- 
|                                                                             |
|           W    W    AA    RRRRR   N    N  II  N    N   GGGG   !!!           |
|           W    W   A  A   R    R  NN   N  II  NN   N  G    G  !!!           |
|           W    W  A    A  R    R  N N  N  II  N N  N  G       !!!           |
|           W WW W  AAAAAA  RRRRR   N  N N  II  N  N N  G  GGG   !            |
|           WW  WW  A    A  R   R   N   NN  II  N   NN  G    G                |
|           W    W  A    A  R    R  N    N  II  N    N   GGGG   !!!           |
|                                                                             |
|      For optimal performance we recommend to set                            |
|        NCORE= 4 - approx SQRT( number of cores)                             |
|      NCORE specifies how many cores store one orbital (NPAR=cpu/NCORE).     |
|      This setting can  greatly improve the performance of VASP for DFT.     |
|      The default, NPAR=number of cores might be grossly inefficient         |
|      on modern multi-core architectures or massively parallel machines.     |
|      Do your own testing !!!!                                               |
|      Unfortunately you need to use the default for GW and RPA calculations. |
|      (for HF NCORE is supported but not extensively tested yet)             |
|                                                                             |
 ----------------------------------------------------------------------------- 

 POTCAR:   PAW_PBE Cs_sv 08Apr2002                
   VRHFIN =Cs: 5s5p6s                                                           
   LEXCH  = PE                                                                  
   EATOM  =   555.6835 eV,   40.8416 Ry                                         
                                                                                
   TITEL  = PAW_PBE Cs_sv 08Apr2002                                             
   LULTRA =        F    use ultrasoft PP ?                                      
   IUNSCR =        1    unscreen: 0-lin 1-nonlin 2-no                           
   RPACOR =    2.200    partial core radius                                     
   POMASS =  132.900; ZVAL   =    9.000    mass and valenz                      
   RCORE  =    2.500    outmost cutoff radius                                   
   RWIGS  =    2.500; RWIGS  =    1.323    wigner-seitz radius (au A)           
   ENMAX  =  220.318; ENMIN  =  165.238 eV                                      
   RCLOC  =    2.207    cutoff for local pot                                    
   LCOR   =        T    correct aug charges                                     
   LPAW   =        T    paw PP                                                  
   EAUG   =  407.933                                                            
   DEXC   =    -.004                                                            
   RMAX   =    3.106    core radius for proj-oper                               
   RAUG   =    1.300    factor for augmentation sphere                          
   RDEP   =    2.590    radius for radial grids                                 
   QCUT   =   -4.024; QGAM   =    8.048    optimization parameters              
                                                                                
   Description                                                                  
     l     E      TYP  RCUT    TYP  RCUT                                        
     0   .000     23  1.900                                                     
     0   .000     23  1.900                                                     
     0   .000     23  1.900                                                     
     0   .000     23  1.900                                                     
     1   .000     23  2.500                                                     
     1  -.200     23  2.500                                                     
     2   .000     23  2.500                                                     
  local pseudopotential read in
  partial core-charges read in
  atomic valenz-charges read in
  non local Contribution for L=           0  read in
    real space projection operators read in
  non local Contribution for L=           0  read in
    real space projection operators read in
  non local Contribution for L=           1  read in
    real space projection operators read in
  non local Contribution for L=           1  read in
    real space projection operators read in
  non local Contribution for L=           2  read in
    real space projection operators read in
    PAW grid and wavefunctions read in
 
   number of l-projection  operators is LMAX  =           5
   number of lm-projection operators is LMMAX =          13
 
 POTCAR:   PAW_PBE In 08Apr2002                   
   VRHFIN =In: s2p1                                                             
   LEXCH  = PE                                                                  
   EATOM  =    53.7908 eV,    3.9535 Ry                                         
                                                                                
   TITEL  = PAW_PBE In 08Apr2002                                                
   LULTRA =        F    use ultrasoft PP ?                                      
   IUNSCR =        1    unscreen: 0-lin 1-nonlin 2-no                           
   RPACOR =    2.400    partial core radius                                     
   POMASS =  114.820; ZVAL   =    3.000    mass and valenz                      
   RCORE  =    3.100    outmost cutoff radius                                   
   RWIGS  =    3.170; RWIGS  =    1.677    wigner-seitz radius (au A)           
   ENMAX  =   95.934; ENMIN  =   71.951 eV                                      
   ICORE  =        3    local potential                                         
   LCOR   =        T    correct aug charges                                     
   LPAW   =        T    paw PP                                                  
   EAUG   =  237.125                                                            
   DEXC   =    -.110                                                            
   RMAX   =    4.707    core radius for proj-oper                               
   RAUG   =    1.300    factor for augmentation sphere                          
   RDEP   =    3.187    radius for radial grids                                 
   QCUT   =   -2.655; QGAM   =    5.311    optimization parameters              
                                                                                
   Description                                                                  
     l     E      TYP  RCUT    TYP  RCUT                                        
     0   .000     23  3.100                                                     
     0   .000     23  3.100                                                     
     1   .000     23  3.100                                                     
     1   .000     23  3.100                                                     
     2  -.100     23  3.100                                                     
     3  -.100     23  3.100                                                     
  local pseudopotential read in
  partial core-charges read in
  atomic valenz-charges read in
  non local Contribution for L=           0  read in
    real space projection operators read in
  non local Contribution for L=           0  read in
    real space projection operators read in
  non local Contribution for L=           1  read in
    real space projection operators read in
  non local Contribution for L=           1  read in
    real space projection operators read in
  non local Contribution for L=           2  read in
    real space projection operators read in
    PAW grid and wavefunctions read in
 
   number of l-projection  operators is LMAX  =           5
   number of lm-projection operators is LMMAX =          13
 
 POTCAR:   PAW_PBE Ag 06Sep2000                   
   VRHFIN =Ag : s1 d10                                                          
   LEXCH  = PE                                                                  
   EATOM  =  1037.4134 eV,   76.2477 Ry                                         
                                                                                
   TITEL  = PAW_PBE Ag 06Sep2000                                                
   LULTRA =        F    use ultrasoft PP ?                                      
   IUNSCR =        1    unscreen: 0-lin 1-nonlin 2-no                           
   RPACOR =    2.000    partial core radius                                     
   POMASS =  107.868; ZVAL   =   11.000    mass and valenz                      
   RCORE  =    2.400    outmost cutoff radius                                   
   RWIGS  =    2.840; RWIGS  =    1.503    wigner-seitz radius (au A)           
   ENMAX  =  249.846; ENMIN  =  187.385 eV                                      
   RCLOC  =    1.962    cutoff for local pot                                    
   LCOR   =        T    correct aug charges                                     
   LPAW   =        T    paw PP                                                  
   EAUG   =  412.496                                                            
   DEXC   =    -.047                                                            
   RMAX   =    2.917    core radius for proj-oper                               
   RAUG   =    1.300    factor for augmentation sphere                          
   RDEP   =    2.416    radius for radial grids                                 
   QCUT   =   -4.285; QGAM   =    8.570    optimization parameters              
                                                                                
   Description                                                                  
     l     E      TYP  RCUT    TYP  RCUT                                        
     2   .000     23  2.400                                                     
     2   .000     23  2.400                                                     
     0   .000     23  2.400                                                     
     0   .000     23  2.400                                                     
     1  -.200     23  2.400                                                     
     1  1.500     23  2.400                                                     
     3   .000      7   .000                                                     
  local pseudopotential read in
  partial core-charges read in
  atomic valenz-charges read in
  non local Contribution for L=           2  read in
    real space projection operators read in
  non local Contribution for L=           2  read in
    real space projection operators read in
  non local Contribution for L=           0  read in
    real space projection operators read in
  non local Contribution for L=           0  read in
    real space projection operators read in
  non local Contribution for L=           1  read in
    real space projection operators read in
  non local Contribution for L=           1  read in
    real space projection operators read in
    PAW grid and wavefunctions read in
 
   number of l-projection  operators is LMAX  =           6
   number of lm-projection operators is LMMAX =          18
 
 POTCAR:    PAW_PBE Cl 17Jan2003                  
   VRHFIN =Cl: s2p5                                                             
   LEXCH  = PE                                                                  
   EATOM  =   409.7259 eV,   30.1140 Ry                                         
                                                                                
   TITEL  = PAW_PBE Cl 17Jan2003                                                
   LULTRA =        F    use ultrasoft PP ?                                      
   IUNSCR =        1    unscreen: 0-lin 1-nonlin 2-no                           
   RPACOR =    1.500    partial core radius                                     
   POMASS =   35.453; ZVAL   =    7.000    mass and valenz                      
   RCORE  =    1.900    outmost cutoff radius                                   
   RWIGS  =    2.100; RWIGS  =    1.111    wigner-seitz radius (au A)           
   ENMAX  =  280.000; ENMIN  =  196.854 eV                                      
   ICORE  =        2    local potential                                         
   LCOR   =        T    correct aug charges                                     
   LPAW   =        T    paw PP                                                  
   EAUG   =  356.192                                                            
   DEXC   =     .000                                                            
   RMAX   =    2.846    core radius for proj-oper                               
   RAUG   =    1.300    factor for augmentation sphere                          
   RDEP   =    2.020    radius for radial grids                                 
   QCUT   =   -4.392; QGAM   =    8.784    optimization parameters              
                                                                                
   Description                                                                  
     l     E      TYP  RCUT    TYP  RCUT                                        
     0   .000     23  1.900                                                     
     0   .000     23  1.900                                                     
     1   .000     23  1.900                                                     
     1   .000     23  1.900                                                     
     2   .000     23  1.900                                                     
  local pseudopotential read in
  partial core-charges read in
  atomic valenz-charges read in
  non local Contribution for L=           0  read in
    real space projection operators read in
  non local Contribution for L=           0  read in
    real space projection operators read in
  non local Contribution for L=           1  read in
    real space projection operators read in
  non local Contribution for L=           1  read in
    real space projection operators read in
    PAW grid and wavefunctions read in
 
   number of l-projection  operators is LMAX  =           4
   number of lm-projection operators is LMMAX =           8
 
 PAW_PBE Cs_sv 08Apr2002                :
 energy of atom  1       EATOM= -555.6835
 kinetic energy error for atom=    0.0041 (will be added to EATOM!!)
 PAW_PBE In 08Apr2002                   :
 energy of atom  2       EATOM=  -53.7908
 kinetic energy error for atom=    0.0000 (will be added to EATOM!!)
 PAW_PBE Ag 06Sep2000                   :
 energy of atom  3       EATOM=-1037.4134
 kinetic energy error for atom=    0.0091 (will be added to EATOM!!)
  PAW_PBE Cl 17Jan2003                  :
 energy of atom  4       EATOM= -409.7259
 kinetic energy error for atom=    0.0089 (will be added to EATOM!!)
 
 
 POSCAR: Cs2 In1 Ag1 Cl6                         
  positions in direct lattice
  velocities in cartesian coordinates
 exchange correlation table for  LEXCH =        8
   RHO(1)=    0.500       N(1)  =     2000
   RHO(2)=  100.500       N(2)  =     4000
 


--------------------------------------------------------------------------------------------------------


 ion  position               nearest neighbor table
   1  0.750  0.750  0.750-
   2  0.250  0.250  0.250-
   3  0.000  0.000  0.000-   9 2.57  10 2.57   5 2.57   7 2.57   6 2.57   8 2.57
   4  0.500  0.500  0.500-   6 2.76   8 2.76   5 2.76   7 2.76   9 2.76  10 2.76
   5  0.759  0.241  0.241-   3 2.57   4 2.76
   6  0.241  0.241  0.759-   3 2.57   4 2.76
   7  0.241  0.759  0.759-   3 2.57   4 2.76
   8  0.241  0.759  0.241-   3 2.57   4 2.76
   9  0.759  0.241  0.759-   3 2.57   4 2.76
  10  0.759  0.759  0.241-   3 2.57   4 2.76
 
  LATTYP: Found a face centered cubic cell.
 ALAT       =    10.6764829972
  
  Lattice vectors:
  
 A1 = (   7.5494135266,   0.0000000000,   0.0000000000)
 A2 = (   3.7747067633,   6.5379838977,  -0.0000000000)
 A3 = (   3.7747067633,   2.1793279659,   6.1640703324)


Analysis of symmetry for initial positions (statically):
=====================================================================
 Subroutine PRICEL returns:
 Original cell was already a primitive cell.
 

 Routine SETGRP: Setting up the symmetry group for a 
 face centered cubic supercell.


 Subroutine GETGRP returns: Found 48 space group operations
 (whereof 48 operations were pure point group operations)
 out of a pool of 48 trial point group operations.


The static configuration has the point symmetry O_h .


Analysis of symmetry for dynamics (positions and initial velocities):
=====================================================================
 Subroutine PRICEL returns:
 Original cell was already a primitive cell.
 

 Routine SETGRP: Setting up the symmetry group for a 
 face centered cubic supercell.


 Subroutine GETGRP returns: Found 48 space group operations
 (whereof 48 operations were pure point group operations)
 out of a pool of 48 trial point group operations.


The dynamic configuration has the point symmetry O_h .
 
 
 KPOINTS: K-Path Generated by VASPKIT.            
  interpolating k-points between supplied coordinates
  k-points in reciprocal lattice
Space group operators:
 irot       det(A)        alpha          n_x          n_y          n_z        tau_x        tau_y        tau_z
    1     1.000000     0.000000     1.000000     0.000000     0.000000     0.000000     0.000000     0.000000
    2    -1.000000     0.000000     1.000000     0.000000     0.000000     0.000000     0.000000     0.000000
    3     1.000000   120.000000    -0.816497    -0.471405    -0.333333     0.000000     0.000000     0.000000
    4    -1.000000   120.000000    -0.816497    -0.471405    -0.333333     0.000000     0.000000     0.000000
    5     1.000000   120.000000     0.816497     0.471405     0.333333     0.000000     0.000000     0.000000
    6    -1.000000   120.000000     0.816497     0.471405     0.333333     0.000000     0.000000     0.000000
    7     1.000000    90.000000    -0.707107    -0.408248     0.577350     0.000000     0.000000     0.000000
    8    -1.000000    90.000000    -0.707107    -0.408248     0.577350     0.000000     0.000000     0.000000
    9     1.000000   180.000000     1.000000     0.000000    -0.000000     0.000000     0.000000     0.000000
   10    -1.000000   180.000000     1.000000     0.000000    -0.000000     0.000000     0.000000     0.000000
   11     1.000000    90.000000     0.707107    -0.408248     0.577350     0.000000     0.000000     0.000000
   12    -1.000000    90.000000     0.707107    -0.408248     0.577350     0.000000     0.000000     0.000000
   13     1.000000   180.000000     0.707107     0.408248    -0.577350     0.000000     0.000000     0.000000
   14    -1.000000   180.000000     0.707107     0.408248    -0.577350     0.000000     0.000000     0.000000
   15     1.000000   120.000000     0.816497    -0.471405    -0.333333     0.000000     0.000000     0.000000
   16    -1.000000   120.000000     0.816497    -0.471405    -0.333333     0.000000     0.000000     0.000000
   17     1.000000   120.000000    -0.000000    -0.942809     0.333333     0.000000     0.000000     0.000000
   18    -1.000000   120.000000    -0.000000    -0.942809     0.333333     0.000000     0.000000     0.000000
   19     1.000000    90.000000     0.707107     0.408248    -0.577350     0.000000     0.000000     0.000000
   20    -1.000000    90.000000     0.707107     0.408248    -0.577350     0.000000     0.000000     0.000000
   21     1.000000    90.000000     0.000000    -0.816497    -0.577350     0.000000     0.000000     0.000000
   22    -1.000000    90.000000     0.000000    -0.816497    -0.577350     0.000000     0.000000     0.000000
   23     1.000000   179.999999     0.500000     0.866025    -0.000000     0.000000     0.000000     0.000000
   24    -1.000000   179.999999     0.500000     0.866025    -0.000000     0.000000     0.000000     0.000000
   25     1.000000   120.000000    -0.000000     0.942809    -0.333333     0.000000     0.000000     0.000000
   26    -1.000000   120.000000    -0.000000     0.942809    -0.333333     0.000000     0.000000     0.000000
   27     1.000000   120.000000     0.000000    -0.000000    -1.000000     0.000000     0.000000     0.000000
   28    -1.000000   120.000000     0.000000    -0.000000    -1.000000     0.000000     0.000000     0.000000
   29     1.000000   180.000000     0.000000    -0.816497    -0.577350     0.000000     0.000000     0.000000
   30    -1.000000   180.000000     0.000000    -0.816497    -0.577350     0.000000     0.000000     0.000000
   31     1.000000    90.000000    -0.707107     0.408248    -0.577350     0.000000     0.000000     0.000000
   32    -1.000000    90.000000    -0.707107     0.408248    -0.577350     0.000000     0.000000     0.000000
   33     1.000000   180.000000     0.500000     0.288675     0.816497     0.000000     0.000000     0.000000
   34    -1.000000   180.000000     0.500000     0.288675     0.816497     0.000000     0.000000     0.000000
   35     1.000000    90.000000     0.000000     0.816497     0.577350     0.000000     0.000000     0.000000
   36    -1.000000    90.000000     0.000000     0.816497     0.577350     0.000000     0.000000     0.000000
   37     1.000000   120.000000    -0.816497     0.471405     0.333333     0.000000     0.000000     0.000000
   38    -1.000000   120.000000    -0.816497     0.471405     0.333333     0.000000     0.000000     0.000000
   39     1.000000   180.000000     0.707107    -0.408248     0.577350     0.000000     0.000000     0.000000
   40    -1.000000   180.000000     0.707107    -0.408248     0.577350     0.000000     0.000000     0.000000
   41     1.000000   120.000000     0.000000     0.000000     1.000000     0.000000     0.000000     0.000000
   42    -1.000000   120.000000     0.000000     0.000000     1.000000     0.000000     0.000000     0.000000
   43     1.000000   180.000000     0.000000    -0.577350     0.816497     0.000000     0.000000     0.000000
   44    -1.000000   180.000000     0.000000    -0.577350     0.816497     0.000000     0.000000     0.000000
   45     1.000000   180.000000    -0.500000     0.866025    -0.000000     0.000000     0.000000     0.000000
   46    -1.000000   180.000000    -0.500000     0.866025    -0.000000     0.000000     0.000000     0.000000
   47     1.000000   180.000000    -0.500000     0.288675     0.816497     0.000000     0.000000     0.000000
   48    -1.000000   180.000000    -0.500000     0.288675     0.816497     0.000000     0.000000     0.000000


--------------------------------------------------------------------------------------------------------




 Dimension of arrays:
   k-points           NKPTS =    100   k-points in BZ     NKDIM =    100   number of bands    NBANDS=     72
   number of dos      NEDOS =    301   number of ions     NIONS =     10
   non local maximal  LDIM  =      6   non local SUM 2l+1 LMDIM =     18
   total plane-waves  NPLWV = 125000
   max r-space proj   IRMAX =      1   max aug-charges    IRDMAX=  46543
   dimension x,y,z NGX =    50 NGY =   50 NGZ =   50
   dimension x,y,z NGXF=   100 NGYF=  100 NGZF=  100
   support grid    NGXF=   100 NGYF=  100 NGZF=  100
   ions per type =               2   1   1   6
 NGX,Y,Z   is equivalent  to a cutoff of  11.01, 11.01, 11.01 a.u.
 NGXF,Y,Z  is equivalent  to a cutoff of  22.02, 22.02, 22.02 a.u.


 I would recommend the setting:
   dimension x,y,z NGX =    49 NGY =   49 NGZ =   49
 SYSTEM =  band                                    
 POSCAR =  Cs2 In1 Ag1 Cl6                         

 Startparameter for this run:
   NWRITE =      2    write-flag & timer
   PREC   = accura    normal or accurate (medium, high low for compatibility)
   ISTART =      1    job   : 0-new  1-cont  2-samecut
   ICHARG =     11    charge: 1-file 2-atom 10-const
   ISPIN  =      1    spin polarized calculation?
   LNONCOLLINEAR =      F non collinear calculations
   LSORBIT =      F    spin-orbit coupling
   INIWAV =      1    electr: 0-lowe 1-rand  2-diag
   LASPH  =      F    aspherical Exc in radial PAW
   METAGGA=      F    non-selfconsistent MetaGGA calc.

 Electronic Relaxation 1
   ENCUT  =  400.0 eV  29.40 Ry    5.42 a.u.  12.31 12.31 12.31*2*pi/ulx,y,z
   ENINI  =  400.0     initial cutoff
   ENAUG  =  412.5 eV  augmentation charge cutoff
   NELM   =    100;   NELMIN=  2; NELMDL=  0     # of ELM steps 
   EDIFF  = 0.1E-07   stopping-criterion for ELM
   LREAL  =      F    real-space projection
   NLSPLINE    = F    spline interpolate recip. space projectors
   LCOMPAT=      F    compatible to vasp.4.4
   GGA_COMPAT  = T    GGA compatible to vasp.4.4-vasp.4.6
   LMAXPAW     = -100 max onsite density
   LMAXMIX     =    2 max onsite mixed and CHGCAR
   VOSKOWN=      0    Vosko Wilk Nusair interpolation
   ROPT   =    0.00000   0.00000   0.00000   0.00000
 Ionic relaxation
   EDIFFG = 0.1E-06   stopping-criterion for IOM
   NSW    =      0    number of steps for IOM
   NBLOCK =      1;   KBLOCK =      1    inner block; outer block 
   IBRION =     -1    ionic relax: 0-MD 1-quasi-New 2-CG
   NFREE  =      0    steps in history (QN), initial steepest desc. (CG)
   ISIF   =      3    stress and relaxation
   IWAVPR =     10    prediction:  0-non 1-charg 2-wave 3-comb
   ISYM   =      2    0-nonsym 1-usesym 2-fastsym
   LCORR  =      T    Harris-Foulkes like correction to forces

   POTIM  = 0.5000    time-step for ionic-motion
   TEIN   =    0.0    initial temperature
   TEBEG  =    0.0;   TEEND  =   0.0 temperature during run
   SMASS  =  -3.00    Nose mass-parameter (am)
   estimated Nose-frequenzy (Omega)   =  0.10E-29 period in steps =****** mass=  -0.130E-26a.u.
   SCALEE = 1.0000    scale energy and forces
   NPACO  =    256;   APACO  = 16.0  distance and # of slots for P.C.
   PSTRESS=    0.0 pullay stress

  Mass of Ions in am
   POMASS = 132.90114.82107.87 35.45
  Ionic Valenz
   ZVAL   =   9.00  3.00 11.00  7.00
  Atomic Wigner-Seitz radii
   RWIGS  =  -1.00 -1.00 -1.00 -1.00
  virtual crystal weights 
   VCA    =   1.00  1.00  1.00  1.00
   NELECT =      74.0000    total number of electrons
   NUPDOWN=      -1.0000    fix difference up-down

 DOS related values:
   EMIN   =  10.00;   EMAX   =-10.00  energy-range for DOS
   EFERMI =   0.00
   ISMEAR =     0;   SIGMA  =   0.01  broadening in eV -4-tet -1-fermi 0-gaus

 Electronic relaxation 2 (details)
   IALGO  =     38    algorithm
   LDIAG  =      T    sub-space diagonalisation (order eigenvalues)
   LSUBROT=      F    optimize rotation matrix (better conditioning)
   TURBO    =      0    0=normal 1=particle mesh
   IRESTART =      0    0=no restart 2=restart with 2 vectors
   NREBOOT  =      0    no. of reboots
   NMIN     =      0    reboot dimension
   EREF     =   0.00    reference energy to select bands
   IMIX   =      4    mixing-type and parameters
     AMIX     =   0.40;   BMIX     =  1.00
     AMIX_MAG =   1.60;   BMIX_MAG =  1.00
     AMIN     =   0.10
     WC   =   100.;   INIMIX=   1;  MIXPRE=   1;  MAXMIX= -45

 Intra band minimization:
   WEIMIN = 0.0000     energy-eigenvalue tresh-hold
   EBREAK =  0.35E-10  absolut break condition
   DEPER  =   0.30     relativ break condition  

   TIME   =   0.40     timestep for ELM

  volume/ion in A,a.u.               =      30.42       205.32
  Fermi-wavevector in a.u.,A,eV,Ry     =   1.021905  1.931120 14.208426  1.044290
  Thomas-Fermi vector in A             =   2.155555
 
 Write flags
   LWAVE  =      T    write WAVECAR
   LCHARG =      T    write CHGCAR
   LVTOT  =      F    write LOCPOT, total local potential
   LVHAR  =      F    write LOCPOT, Hartree potential only
   LELF   =      F    write electronic localiz. function (ELF)
   LORBIT =     11    0 simple, 1 ext, 2 COOP (PROOUT)


 Dipole corrections
   LMONO  =      F    monopole corrections only (constant potential shift)
   LDIPOL =      F    correct potential (dipole corrections)
   IDIPOL =      0    1-x, 2-y, 3-z, 4-all directions 
   EPSILON=  1.0000000 bulk dielectric constant

 Exchange correlation treatment:
   GGA     =    PE    GGA type
   LEXCH   =     8    internal setting for exchange type
   VOSKOWN=      0    Vosko Wilk Nusair interpolation
   LHFCALC =     F    Hartree Fock is set to
   LHFONE  =     F    Hartree Fock one center treatment
   AEXX    =    0.0000 exact exchange contribution

 Linear response parameters
   LEPSILON=     F    determine dielectric tensor
   LRPA    =     F    only Hartree local field effects (RPA)
   LNABLA  =     F    use nabla operator in PAW spheres
   LVEL    =     F    velocity operator in full k-point grid
   LINTERFAST=   F  fast interpolation
   KINTER  =     0    interpolate to denser k-point grid
   CSHIFT  =0.1000    complex shift for real part using Kramers Kronig
   OMEGAMAX=  -1.0    maximum frequency
   DEG_THRESHOLD= 0.2000000E-02 threshold for treating states as degnerate
   RTIME   =    0.100 relaxation time in fs

 Orbital magnetization related:
   ORBITALMAG=     F  switch on orbital magnetization
   LCHIMAG   =     F  perturbation theory with respect to B field
   DQ        =  0.001000  dq finite difference perturbation B field



--------------------------------------------------------------------------------------------------------


 Static calculation
 charge density and potential remain constant during run
 non-spin polarized calculation
 Variant of blocked Davidson
 Davidson routine will perform the subspace rotation
 perform sub-space diagonalisation
    after iterative eigenvector-optimisation
 no mixing
 using additional bands           35
 reciprocal scheme for non local part
 use partial core corrections
 calculate Harris-corrections to forces 
   (improved forces if not selfconsistent)
 use gradient corrections 
 WARNING: stress and forces are not correct
  (second derivative of E(xc) not defined)
 use of overlap-Matrix (Vanderbilt PP)
 Gauss-broadening in eV      SIGMA  =   0.01


--------------------------------------------------------------------------------------------------------


  energy-cutoff  :      400.00
  volume of cell :      304.25
      direct lattice vectors                 reciprocal lattice vectors
     7.549413527  0.000000000  0.000000000     0.132460620 -0.076476175 -0.054076822
     3.774706763  6.537983898 -0.000000000     0.000000000  0.152952350 -0.054076822
     3.774706763  2.179327966  6.164070332     0.000000000  0.000000000  0.162230466

  length of vectors
     7.549413527  7.549413527  7.549413527     0.162230466  0.162230466  0.162230466


 
 old parameters found on file WAVECAR:
  energy-cutoff  :      400.00
  volume of cell :      304.25
      direct lattice vectors                 reciprocal lattice vectors
     7.549413527  0.000000000  0.000000000     0.132460620 -0.076476175 -0.054076822
     3.774706763  6.537983898 -0.000000000     0.000000000  0.152952350 -0.054076822
     3.774706763  2.179327966  6.164070332     0.000000000  0.000000000  0.162230466

  length of vectors

 
 k-points in units of 2pi/SCALE and weight: K-Path Generated by VASPKIT.            
   0.06623031  0.00000000  0.08111523       0.010
   0.06623031  0.00201253  0.07826908       0.010
   0.06623031  0.00402506  0.07542294       0.010
   0.06623031  0.00603759  0.07257679       0.010
   0.06623031  0.00805012  0.06973064       0.010
   0.06623031  0.01006265  0.06688449       0.010
   0.06623031  0.01207519  0.06403834       0.010
   0.06623031  0.01408772  0.06119219       0.010
   0.06623031  0.01610025  0.05834604       0.010
   0.06623031  0.01811278  0.05549990       0.010
   0.06623031  0.02012531  0.05265375       0.010
   0.06623031  0.02213784  0.04980760       0.010
   0.06623031  0.02415037  0.04696145       0.010
   0.06623031  0.02616290  0.04411530       0.010
   0.06623031  0.02817543  0.04126915       0.010
   0.06623031  0.03018796  0.03842301       0.010
   0.06623031  0.03220049  0.03557686       0.010
   0.06623031  0.03421303  0.03273071       0.010
   0.06623031  0.03622556  0.02988456       0.010
   0.06623031  0.03823809  0.02703841       0.010
   0.06623031  0.03823809  0.02703841       0.010
   0.06274450  0.03622556  0.02561534       0.010
   0.05925870  0.03421303  0.02419226       0.010
   0.05577289  0.03220049  0.02276919       0.010
   0.05228709  0.03018796  0.02134611       0.010
   0.04880128  0.02817543  0.01992304       0.010
   0.04531548  0.02616290  0.01849997       0.010
   0.04182967  0.02415037  0.01707689       0.010
   0.03834386  0.02213784  0.01565382       0.010
   0.03485806  0.02012531  0.01423074       0.010
   0.03137225  0.01811278  0.01280767       0.010
   0.02788645  0.01610025  0.01138459       0.010
   0.02440064  0.01408772  0.00996152       0.010
   0.02091483  0.01207519  0.00853845       0.010
   0.01742903  0.01006265  0.00711537       0.010
   0.01394322  0.00805012  0.00569230       0.010
   0.01045742  0.00603759  0.00426922       0.010
   0.00697161  0.00402506  0.00284615       0.010
   0.00348581  0.00201253  0.00142307       0.010
   0.00000000  0.00000000  0.00000000       0.010
   0.00000000  0.00000000  0.00000000       0.010
   0.00348581 -0.00201253  0.00284615       0.010
   0.00697161 -0.00402506  0.00569230       0.010
   0.01045742 -0.00603759  0.00853845       0.010
   0.01394322 -0.00805012  0.01138459       0.010
   0.01742903 -0.01006265  0.01423074       0.010
   0.02091483 -0.01207519  0.01707689       0.010
   0.02440064 -0.01408772  0.01992304       0.010
   0.02788645 -0.01610025  0.02276919       0.010
   0.03137225 -0.01811278  0.02561534       0.010
   0.03485806 -0.02012531  0.02846149       0.010
   0.03834386 -0.02213784  0.03130763       0.010
   0.04182967 -0.02415037  0.03415378       0.010
   0.04531548 -0.02616290  0.03699993       0.010
   0.04880128 -0.02817543  0.03984608       0.010
   0.05228709 -0.03018796  0.04269223       0.010
   0.05577289 -0.03220049  0.04553838       0.010
   0.05925870 -0.03421303  0.04838452       0.010
   0.06274450 -0.03622556  0.05123067       0.010
   0.06623031 -0.03823809  0.05407682       0.010
   0.06623031 -0.03823809  0.05407682       0.010
   0.06623031 -0.03622556  0.05549990       0.010
   0.06623031 -0.03421303  0.05692297       0.010
   0.06623031 -0.03220049  0.05834604       0.010
   0.06623031 -0.03018796  0.05976912       0.010
   0.06623031 -0.02817543  0.06119219       0.010
   0.06623031 -0.02616290  0.06261527       0.010
   0.06623031 -0.02415037  0.06403834       0.010
   0.06623031 -0.02213784  0.06546142       0.010
   0.06623031 -0.02012531  0.06688449       0.010
   0.06623031 -0.01811278  0.06830756       0.010
   0.06623031 -0.01610025  0.06973064       0.010
   0.06623031 -0.01408772  0.07115371       0.010
   0.06623031 -0.01207519  0.07257679       0.010
   0.06623031 -0.01006265  0.07399986       0.010
   0.06623031 -0.00805012  0.07542294       0.010
   0.06623031 -0.00603759  0.07684601       0.010
   0.06623031 -0.00402506  0.07826908       0.010
   0.06623031 -0.00201253  0.07969216       0.010
   0.06623031  0.00000000  0.08111523       0.010
   0.06623031  0.00000000  0.08111523       0.010
   0.06535886  0.00150940  0.08111523       0.010
   0.06448741  0.00301880  0.08111523       0.010
   0.06361596  0.00452819  0.08111523       0.010
   0.06274450  0.00603759  0.08111523       0.010
   0.06187305  0.00754699  0.08111523       0.010
   0.06100160  0.00905639  0.08111523       0.010
   0.06013015  0.01056579  0.08111523       0.010
   0.05925870  0.01207519  0.08111523       0.010
   0.05838725  0.01358458  0.08111523       0.010
   0.05751580  0.01509398  0.08111523       0.010
   0.05664434  0.01660338  0.08111523       0.010
   0.05577289  0.01811278  0.08111523       0.010
   0.05490144  0.01962218  0.08111523       0.010
   0.05402999  0.02113157  0.08111523       0.010
   0.05315854  0.02264097  0.08111523       0.010
   0.05228709  0.02415037  0.08111523       0.010
   0.05141564  0.02565977  0.08111523       0.010
   0.05054418  0.02716917  0.08111523       0.010
   0.04967273  0.02867857  0.08111523       0.010
 
 k-points in reciprocal lattice and weights: K-Path Generated by VASPKIT.            
   0.50000000  0.25000000  0.75000000       0.010
   0.50000000  0.26315789  0.73684211       0.010
   0.50000000  0.27631579  0.72368421       0.010
   0.50000000  0.28947368  0.71052632       0.010
   0.50000000  0.30263158  0.69736842       0.010
   0.50000000  0.31578947  0.68421053       0.010
   0.50000000  0.32894737  0.67105263       0.010
   0.50000000  0.34210526  0.65789474       0.010
   0.50000000  0.35526316  0.64473684       0.010
   0.50000000  0.36842105  0.63157895       0.010
   0.50000000  0.38157895  0.61842105       0.010
   0.50000000  0.39473684  0.60526316       0.010
   0.50000000  0.40789474  0.59210526       0.010
   0.50000000  0.42105263  0.57894737       0.010
   0.50000000  0.43421053  0.56578947       0.010
   0.50000000  0.44736842  0.55263158       0.010
   0.50000000  0.46052632  0.53947368       0.010
   0.50000000  0.47368421  0.52631579       0.010
   0.50000000  0.48684211  0.51315789       0.010
   0.50000000  0.50000000  0.50000000       0.010
   0.50000000  0.50000000  0.50000000       0.010
   0.47368421  0.47368421  0.47368421       0.010
   0.44736842  0.44736842  0.44736842       0.010
   0.42105263  0.42105263  0.42105263       0.010
   0.39473684  0.39473684  0.39473684       0.010
   0.36842105  0.36842105  0.36842105       0.010
   0.34210526  0.34210526  0.34210526       0.010
   0.31578947  0.31578947  0.31578947       0.010
   0.28947368  0.28947368  0.28947368       0.010
   0.26315789  0.26315789  0.26315789       0.010
   0.23684211  0.23684211  0.23684211       0.010
   0.21052632  0.21052632  0.21052632       0.010
   0.18421053  0.18421053  0.18421053       0.010
   0.15789474  0.15789474  0.15789474       0.010
   0.13157895  0.13157895  0.13157895       0.010
   0.10526316  0.10526316  0.10526316       0.010
   0.07894737  0.07894737  0.07894737       0.010
   0.05263158  0.05263158  0.05263158       0.010
   0.02631579  0.02631579  0.02631579       0.010
   0.00000000  0.00000000  0.00000000       0.010
   0.00000000  0.00000000  0.00000000       0.010
   0.02631579  0.00000000  0.02631579       0.010
   0.05263158  0.00000000  0.05263158       0.010
   0.07894737  0.00000000  0.07894737       0.010
   0.10526316  0.00000000  0.10526316       0.010
   0.13157895  0.00000000  0.13157895       0.010
   0.15789474  0.00000000  0.15789474       0.010
   0.18421053  0.00000000  0.18421053       0.010
   0.21052632  0.00000000  0.21052632       0.010
   0.23684211  0.00000000  0.23684211       0.010
   0.26315789  0.00000000  0.26315789       0.010
   0.28947368  0.00000000  0.28947368       0.010
   0.31578947  0.00000000  0.31578947       0.010
   0.34210526  0.00000000  0.34210526       0.010
   0.36842105  0.00000000  0.36842105       0.010
   0.39473684  0.00000000  0.39473684       0.010
   0.42105263  0.00000000  0.42105263       0.010
   0.44736842  0.00000000  0.44736842       0.010
   0.47368421  0.00000000  0.47368421       0.010
   0.50000000  0.00000000  0.50000000       0.010
   0.50000000  0.00000000  0.50000000       0.010
   0.50000000  0.01315789  0.51315789       0.010
   0.50000000  0.02631579  0.52631579       0.010
   0.50000000  0.03947368  0.53947368       0.010
   0.50000000  0.05263158  0.55263158       0.010
   0.50000000  0.06578947  0.56578947       0.010
   0.50000000  0.07894737  0.57894737       0.010
   0.50000000  0.09210526  0.59210526       0.010
   0.50000000  0.10526316  0.60526316       0.010
   0.50000000  0.11842105  0.61842105       0.010
   0.50000000  0.13157895  0.63157895       0.010
   0.50000000  0.14473684  0.64473684       0.010
   0.50000000  0.15789474  0.65789474       0.010
   0.50000000  0.17105263  0.67105263       0.010
   0.50000000  0.18421053  0.68421053       0.010
   0.50000000  0.19736842  0.69736842       0.010
   0.50000000  0.21052632  0.71052632       0.010
   0.50000000  0.22368421  0.72368421       0.010
   0.50000000  0.23684211  0.73684211       0.010
   0.50000000  0.25000000  0.75000000       0.010
   0.50000000  0.25000000  0.75000000       0.010
   0.49342105  0.25657895  0.75000000       0.010
   0.48684211  0.26315789  0.75000000       0.010
   0.48026316  0.26973684  0.75000000       0.010
   0.47368421  0.27631579  0.75000000       0.010
   0.46710526  0.28289474  0.75000000       0.010
   0.46052632  0.28947368  0.75000000       0.010
   0.45394737  0.29605263  0.75000000       0.010
   0.44736842  0.30263158  0.75000000       0.010
   0.44078947  0.30921053  0.75000000       0.010
   0.43421053  0.31578947  0.75000000       0.010
   0.42763158  0.32236842  0.75000000       0.010
   0.42105263  0.32894737  0.75000000       0.010
   0.41447368  0.33552632  0.75000000       0.010
   0.40789474  0.34210526  0.75000000       0.010
   0.40131579  0.34868421  0.75000000       0.010
   0.39473684  0.35526316  0.75000000       0.010
   0.38815789  0.36184211  0.75000000       0.010
   0.38157895  0.36842105  0.75000000       0.010
   0.37500000  0.37500000  0.75000000       0.010
 
 position of ions in fractional coordinates (direct lattice) 
   0.75000001  0.74999999  0.74999999
   0.25000001  0.24999998  0.25000000
   0.00000000  0.00000000  0.00000000
   0.50000001  0.49999997  0.50000000
   0.75885247  0.24114759  0.24114761
   0.24114765  0.24114760  0.75885240
   0.24114761  0.75885238  0.75885240
   0.24114766  0.75885237  0.24114761
   0.75885248  0.24114760  0.75885240
   0.75885249  0.75885237  0.24114761
 
 position of ions in cartesian coordinates  (Angst):
  11.32412029  6.53798382  4.62305266
   3.77470676  2.17932786  1.54101760
   0.00000000  0.00000000  0.00000000
   7.54941353  4.35865572  3.08203519
   7.54941400  2.10215877  1.48645081
   5.59523010  3.23040737  4.67761957
   7.54941353  6.61515291  4.67761957
   5.59523010  5.48690432  1.48645081
   9.50359791  3.23040737  4.67761957
   9.50359791  5.48690432  1.48645081
 


--------------------------------------------------------------------------------------------------------


 k-point  1 :   0.5000 0.2500 0.7500  plane waves:    5520
 k-point  2 :   0.5000 0.2632 0.7368  plane waves:    5530
 k-point  3 :   0.5000 0.2763 0.7237  plane waves:    5530
 k-point  4 :   0.5000 0.2895 0.7105  plane waves:    5524
 k-point  5 :   0.5000 0.3026 0.6974  plane waves:    5528
 k-point  6 :   0.5000 0.3158 0.6842  plane waves:    5524
 k-point  7 :   0.5000 0.3289 0.6711  plane waves:    5518
 k-point  8 :   0.5000 0.3421 0.6579  plane waves:    5530
 k-point  9 :   0.5000 0.3553 0.6447  plane waves:    5530
 k-point 10 :   0.5000 0.3684 0.6316  plane waves:    5528
 k-point 11 :   0.5000 0.3816 0.6184  plane waves:    5518
 k-point 12 :   0.5000 0.3947 0.6053  plane waves:    5522
 k-point 13 :   0.5000 0.4079 0.5921  plane waves:    5518
 k-point 14 :   0.5000 0.4211 0.5789  plane waves:    5526
 k-point 15 :   0.5000 0.4342 0.5658  plane waves:    5532
 k-point 16 :   0.5000 0.4474 0.5526  plane waves:    5532
 k-point 17 :   0.5000 0.4605 0.5395  plane waves:    5534
 k-point 18 :   0.5000 0.4737 0.5263  plane waves:    5530
 k-point 19 :   0.5000 0.4868 0.5132  plane waves:    5536
 k-point 20 :   0.5000 0.5000 0.5000  plane waves:    5564
 k-point 21 :   0.5000 0.5000 0.5000  plane waves:    5564
 k-point 22 :   0.4737 0.4737 0.4737  plane waves:    5540
 k-point 23 :   0.4474 0.4474 0.4474  plane waves:    5528
 k-point 24 :   0.4211 0.4211 0.4211  plane waves:    5522
 k-point 25 :   0.3947 0.3947 0.3947  plane waves:    5522
 k-point 26 :   0.3684 0.3684 0.3684  plane waves:    5540
 k-point 27 :   0.3421 0.3421 0.3421  plane waves:    5531
 k-point 28 :   0.3158 0.3158 0.3158  plane waves:    5525
 k-point 29 :   0.2895 0.2895 0.2895  plane waves:    5528
 k-point 30 :   0.2632 0.2632 0.2632  plane waves:    5528
 k-point 31 :   0.2368 0.2368 0.2368  plane waves:    5543
 k-point 32 :   0.2105 0.2105 0.2105  plane waves:    5540
 k-point 33 :   0.1842 0.1842 0.1842  plane waves:    5537
 k-point 34 :   0.1579 0.1579 0.1579  plane waves:    5528
 k-point 35 :   0.1316 0.1316 0.1316  plane waves:    5561
 k-point 36 :   0.1053 0.1053 0.1053  plane waves:    5567
 k-point 37 :   0.0789 0.0789 0.0789  plane waves:    5558
 k-point 38 :   0.0526 0.0526 0.0526  plane waves:    5582
 k-point 39 :   0.0263 0.0263 0.0263  plane waves:    5583
 k-point 40 :   0.0000 0.0000 0.0000  plane waves:    5577
 k-point 41 :   0.0000 0.0000 0.0000  plane waves:    5577
 k-point 42 :   0.0263 0.0000 0.0263  plane waves:    5585
 k-point 43 :   0.0526 0.0000 0.0526  plane waves:    5585
 k-point 44 :   0.0789 0.0000 0.0789  plane waves:    5573
 k-point 45 :   0.1053 0.0000 0.1053  plane waves:    5557
 k-point 46 :   0.1316 0.0000 0.1316  plane waves:    5545
 k-point 47 :   0.1579 0.0000 0.1579  plane waves:    5537
 k-point 48 :   0.1842 0.0000 0.1842  plane waves:    5541
 k-point 49 :   0.2105 0.0000 0.2105  plane waves:    5549
 k-point 50 :   0.2368 0.0000 0.2368  plane waves:    5537
 k-point 51 :   0.2632 0.0000 0.2632  plane waves:    5537
 k-point 52 :   0.2895 0.0000 0.2895  plane waves:    5517
 k-point 53 :   0.3158 0.0000 0.3158  plane waves:    5506
 k-point 54 :   0.3421 0.0000 0.3421  plane waves:    5510
 k-point 55 :   0.3684 0.0000 0.3684  plane waves:    5530
 k-point 56 :   0.3947 0.0000 0.3947  plane waves:    5534
 k-point 57 :   0.4211 0.0000 0.4211  plane waves:    5530
 k-point 58 :   0.4474 0.0000 0.4474  plane waves:    5522
 k-point 59 :   0.4737 0.0000 0.4737  plane waves:    5506
 k-point 60 :   0.5000 0.0000 0.5000  plane waves:    5514
 k-point 61 :   0.5000 0.0000 0.5000  plane waves:    5514
 k-point 62 :   0.5000 0.0132 0.5132  plane waves:    5514
 k-point 63 :   0.5000 0.0263 0.5263  plane waves:    5506
 k-point 64 :   0.5000 0.0395 0.5395  plane waves:    5500
 k-point 65 :   0.5000 0.0526 0.5526  plane waves:    5510
 k-point 66 :   0.5000 0.0658 0.5658  plane waves:    5522
 k-point 67 :   0.5000 0.0789 0.5789  plane waves:    5524
 k-point 68 :   0.5000 0.0921 0.5921  plane waves:    5514
 k-point 69 :   0.5000 0.1053 0.6053  plane waves:    5518
 k-point 70 :   0.5000 0.1184 0.6184  plane waves:    5526
 k-point 71 :   0.5000 0.1316 0.6316  plane waves:    5528
 k-point 72 :   0.5000 0.1447 0.6447  plane waves:    5524
 k-point 73 :   0.5000 0.1579 0.6579  plane waves:    5520
 k-point 74 :   0.5000 0.1711 0.6711  plane waves:    5526
 k-point 75 :   0.5000 0.1842 0.6842  plane waves:    5522
 k-point 76 :   0.5000 0.1974 0.6974  plane waves:    5524
 k-point 77 :   0.5000 0.2105 0.7105  plane waves:    5522
 k-point 78 :   0.5000 0.2237 0.7237  plane waves:    5530
 k-point 79 :   0.5000 0.2368 0.7368  plane waves:    5530
 k-point 80 :   0.5000 0.2500 0.7500  plane waves:    5520
 k-point 81 :   0.5000 0.2500 0.7500  plane waves:    5520
 k-point 82 :   0.4934 0.2566 0.7500  plane waves:    5527
 k-point 83 :   0.4868 0.2632 0.7500  plane waves:    5528
 k-point 84 :   0.4803 0.2697 0.7500  plane waves:    5528
 k-point 85 :   0.4737 0.2763 0.7500  plane waves:    5524
 k-point 86 :   0.4671 0.2829 0.7500  plane waves:    5532
 k-point 87 :   0.4605 0.2895 0.7500  plane waves:    5531
 k-point 88 :   0.4539 0.2961 0.7500  plane waves:    5525
 k-point 89 :   0.4474 0.3026 0.7500  plane waves:    5515
 k-point 90 :   0.4408 0.3092 0.7500  plane waves:    5524
 k-point 91 :   0.4342 0.3158 0.7500  plane waves:    5526
 k-point 92 :   0.4276 0.3224 0.7500  plane waves:    5531
 k-point 93 :   0.4211 0.3289 0.7500  plane waves:    5529
 k-point 94 :   0.4145 0.3355 0.7500  plane waves:    5525
 k-point 95 :   0.4079 0.3421 0.7500  plane waves:    5517
 k-point 96 :   0.4013 0.3487 0.7500  plane waves:    5517
 k-point 97 :   0.3947 0.3553 0.7500  plane waves:    5516
 k-point 98 :   0.3882 0.3618 0.7500  plane waves:    5512
 k-point 99 :   0.3816 0.3684 0.7500  plane waves:    5512
 k-point ** :   0.3750 0.3750 0.7500  plane waves:    5536

 maximum and minimum number of plane-waves per node :      5585     5500

 maximum number of plane-waves:      5585
 maximum index in each direction: 
   IXMAX=   12   IYMAX=   12   IZMAX=   12
   IXMIN=  -12   IYMIN=  -12   IZMIN=  -13

 NGX is ok and might be reduce to  50
 NGY is ok and might be reduce to  50
 WARNING: aliasing errors must be expected set NGZ to  52 to avoid them
 aliasing errors are usually negligible using standard VASP settings
 and one can safely disregard these warnings

 serial   3D FFT for wavefunctions
 parallel 3D FFT for charge:
    minimum data exchange during FFTs selected (reduces bandwidth)


 total amount of memory used by VASP on root node   381628. kBytes
========================================================================

   base      :      30000. kBytes
   nonl-proj :     324380. kBytes
   fftplans  :       1544. kBytes
   grid      :       7233. kBytes
   one-center:        155. kBytes
   wavefun   :      18316. kBytes
 
     INWAV:  cpu time    1.2928: real time    2.1627
 initial charge density was supplied:
 number of electron      73.9999988 magnetization 
 keeping initial charge density in first step


--------------------------------------------------------------------------------------------------------


 Maximum index for augmentation-charges         1393 (set IRDMAX)


--------------------------------------------------------------------------------------------------------


 First call to EWALD:  gamma=   0.264
 Maximum number of real-space cells 3x 3x 3
 Maximum number of reciprocal cells 3x 3x 3

 FEWALD executed in parallel
    FEWALD:  cpu time    0.0020: real time    0.0016


----------------------------------------- Iteration    1(   1)  ---------------------------------------


    POTLOK:  cpu time    0.0220: real time    0.0229
    SETDIJ:  cpu time    0.0080: real time    0.0074
     EDDAV:  cpu time   12.8610: real time   12.9029
       DOS:  cpu time    0.0020: real time    0.0015
    --------------------------------------------
      LOOP:  cpu time   12.8950: real time   12.9390

 eigenvalue-minimisations  : 20736
 total energy-change (2. order) :-0.1000257E+02  (-0.8085632E+02)
 number of electron      73.9999988 magnetization 
 augmentation part       73.9999988 magnetization 

 Free energy of the ion-electron system (eV)
  ---------------------------------------------------
  alpha Z        PSCENC =       180.20153990
  Ewald energy   TEWEN  =     -3640.06966004
  -Hartree energ DENC   =     -1047.44128760
  -exchange      EXHF   =         0.00000000
  -V(xc)+E(xc)   XCENC  =        77.28474820
  PAW double counting   =      2827.32892657    -2709.38545959
  entropy T*S    EENTRO =        -0.00017780
  eigenvalues    EBANDS =      -358.77680750
  atomic energy  EATOM  =      4660.85560985
  Solvation  Ediel_sol  =         0.00000000
  ---------------------------------------------------
  free energy    TOTEN  =       -10.00256802 eV

  energy without entropy =      -10.00239022  energy(sigma->0) =      -10.00247912


--------------------------------------------------------------------------------------------------------




----------------------------------------- Iteration    1(   2)  ---------------------------------------


     EDDAV:  cpu time   10.2544: real time   10.2824
       DOS:  cpu time    0.0000: real time    0.0005
    --------------------------------------------
      LOOP:  cpu time   10.2544: real time   10.2858

 eigenvalue-minimisations  : 16740
 total energy-change (2. order) :-0.2173901E+02  (-0.2145164E+02)
 number of electron      73.9999988 magnetization 
 augmentation part       73.9999988 magnetization 

 Free energy of the ion-electron system (eV)
  ---------------------------------------------------
  alpha Z        PSCENC =       180.20153990
  Ewald energy   TEWEN  =     -3640.06966004
  -Hartree energ DENC   =     -1047.44128760
  -exchange      EXHF   =         0.00000000
  -V(xc)+E(xc)   XCENC  =        77.28474820
  PAW double counting   =      2827.32892657    -2709.38545959
  entropy T*S    EENTRO =        -0.00000000
  eigenvalues    EBANDS =      -380.51599201
  atomic energy  EATOM  =      4660.85560985
  Solvation  Ediel_sol  =         0.00000000
  ---------------------------------------------------
  free energy    TOTEN  =       -31.74157473 eV

  energy without entropy =      -31.74157473  energy(sigma->0) =      -31.74157473


--------------------------------------------------------------------------------------------------------




----------------------------------------- Iteration    1(   3)  ---------------------------------------


     EDDAV:  cpu time   12.7471: real time   12.7787
       DOS:  cpu time    0.0010: real time    0.0005
    --------------------------------------------
      LOOP:  cpu time   12.7491: real time   12.7812

 eigenvalue-minimisations  : 20772
 total energy-change (2. order) :-0.2793236E+00  (-0.2791864E+00)
 number of electron      73.9999988 magnetization 
 augmentation part       73.9999988 magnetization 

 Free energy of the ion-electron system (eV)
  ---------------------------------------------------
  alpha Z        PSCENC =       180.20153990
  Ewald energy   TEWEN  =     -3640.06966004
  -Hartree energ DENC   =     -1047.44128760
  -exchange      EXHF   =         0.00000000
  -V(xc)+E(xc)   XCENC  =        77.28474820
  PAW double counting   =      2827.32892657    -2709.38545959
  entropy T*S    EENTRO =        -0.00000000
  eigenvalues    EBANDS =      -380.79531558
  atomic energy  EATOM  =      4660.85560985
  Solvation  Ediel_sol  =         0.00000000
  ---------------------------------------------------
  free energy    TOTEN  =       -32.02089830 eV

  energy without entropy =      -32.02089830  energy(sigma->0) =      -32.02089830


--------------------------------------------------------------------------------------------------------




----------------------------------------- Iteration    1(   4)  ---------------------------------------


     EDDAV:  cpu time   10.7204: real time   10.7560
       DOS:  cpu time    0.0010: real time    0.0005
    --------------------------------------------
      LOOP:  cpu time   10.7224: real time   10.7603

 eigenvalue-minimisations  : 17280
 total energy-change (2. order) :-0.2729494E-02  (-0.2729478E-02)
 number of electron      73.9999988 magnetization 
 augmentation part       73.9999988 magnetization 

 Free energy of the ion-electron system (eV)
  ---------------------------------------------------
  alpha Z        PSCENC =       180.20153990
  Ewald energy   TEWEN  =     -3640.06966004
  -Hartree energ DENC   =     -1047.44128760
  -exchange      EXHF   =         0.00000000
  -V(xc)+E(xc)   XCENC  =        77.28474820
  PAW double counting   =      2827.32892657    -2709.38545959
  entropy T*S    EENTRO =        -0.00000000
  eigenvalues    EBANDS =      -380.79804507
  atomic energy  EATOM  =      4660.85560985
  Solvation  Ediel_sol  =         0.00000000
  ---------------------------------------------------
  free energy    TOTEN  =       -32.02362779 eV

  energy without entropy =      -32.02362779  energy(sigma->0) =      -32.02362779


--------------------------------------------------------------------------------------------------------




----------------------------------------- Iteration    1(   5)  ---------------------------------------


     EDDAV:  cpu time   12.6541: real time   12.6822
       DOS:  cpu time    0.0010: real time    0.0005
    --------------------------------------------
      LOOP:  cpu time   12.6561: real time   12.6856

 eigenvalue-minimisations  : 20628
 total energy-change (2. order) :-0.5185569E-04  (-0.5185542E-04)
 number of electron      73.9999988 magnetization 
 augmentation part       73.9999988 magnetization 

 Free energy of the ion-electron system (eV)
  ---------------------------------------------------
  alpha Z        PSCENC =       180.20153990
  Ewald energy   TEWEN  =     -3640.06966004
  -Hartree energ DENC   =     -1047.44128760
  -exchange      EXHF   =         0.00000000
  -V(xc)+E(xc)   XCENC  =        77.28474820
  PAW double counting   =      2827.32892657    -2709.38545959
  entropy T*S    EENTRO =        -0.00000000
  eigenvalues    EBANDS =      -380.79809693
  atomic energy  EATOM  =      4660.85560985
  Solvation  Ediel_sol  =         0.00000000
  ---------------------------------------------------
  free energy    TOTEN  =       -32.02367965 eV

  energy without entropy =      -32.02367965  energy(sigma->0) =      -32.02367965


--------------------------------------------------------------------------------------------------------




----------------------------------------- Iteration    1(   6)  ---------------------------------------


     EDDAV:  cpu time   11.2713: real time   11.3022
       DOS:  cpu time    0.0010: real time    0.0005
    --------------------------------------------
      LOOP:  cpu time   11.2733: real time   11.3082

 eigenvalue-minimisations  : 18324
 total energy-change (2. order) :-0.1143148E-05  (-0.1143158E-05)
 number of electron      73.9999988 magnetization 
 augmentation part       73.9999988 magnetization 

 Free energy of the ion-electron system (eV)
  ---------------------------------------------------
  alpha Z        PSCENC =       180.20153990
  Ewald energy   TEWEN  =     -3640.06966004
  -Hartree energ DENC   =     -1047.44128760
  -exchange      EXHF   =         0.00000000
  -V(xc)+E(xc)   XCENC  =        77.28474820
  PAW double counting   =      2827.32892657    -2709.38545959
  entropy T*S    EENTRO =        -0.00000000
  eigenvalues    EBANDS =      -380.79809807
  atomic energy  EATOM  =      4660.85560985
  Solvation  Ediel_sol  =         0.00000000
  ---------------------------------------------------
  free energy    TOTEN  =       -32.02368079 eV

  energy without entropy =      -32.02368079  energy(sigma->0) =      -32.02368079


--------------------------------------------------------------------------------------------------------




----------------------------------------- Iteration    1(   7)  ---------------------------------------


     EDDAV:  cpu time   12.6321: real time   12.6648
       DOS:  cpu time    0.0000: real time    0.0005
    --------------------------------------------
      LOOP:  cpu time   12.6321: real time   12.6696

 eigenvalue-minimisations  : 20592
 total energy-change (2. order) :-0.2743127E-07  (-0.2746739E-07)
 number of electron      73.9999988 magnetization 
 augmentation part       73.9999988 magnetization 

 Free energy of the ion-electron system (eV)
  ---------------------------------------------------
  alpha Z        PSCENC =       180.20153990
  Ewald energy   TEWEN  =     -3640.06966004
  -Hartree energ DENC   =     -1047.44128760
  -exchange      EXHF   =         0.00000000
  -V(xc)+E(xc)   XCENC  =        77.28474820
  PAW double counting   =      2827.32892657    -2709.38545959
  entropy T*S    EENTRO =        -0.00000000
  eigenvalues    EBANDS =      -380.79809810
  atomic energy  EATOM  =      4660.85560985
  Solvation  Ediel_sol  =         0.00000000
  ---------------------------------------------------
  free energy    TOTEN  =       -32.02368082 eV

  energy without entropy =      -32.02368082  energy(sigma->0) =      -32.02368082


--------------------------------------------------------------------------------------------------------




----------------------------------------- Iteration    1(   8)  ---------------------------------------


     EDDAV:  cpu time    9.8715: real time    9.8966
       DOS:  cpu time    0.0000: real time    0.0005
    --------------------------------------------
      LOOP:  cpu time    9.8725: real time    9.8999

 eigenvalue-minimisations  : 15552
 total energy-change (2. order) :-0.7285053E-09  (-0.6575724E-09)
 number of electron      73.9999988 magnetization 
 augmentation part       73.9999988 magnetization 

 Free energy of the ion-electron system (eV)
  ---------------------------------------------------
  alpha Z        PSCENC =       180.20153990
  Ewald energy   TEWEN  =     -3640.06966004
  -Hartree energ DENC   =     -1047.44128760
  -exchange      EXHF   =         0.00000000
  -V(xc)+E(xc)   XCENC  =        77.28474820
  PAW double counting   =      2827.32892657    -2709.38545959
  entropy T*S    EENTRO =        -0.00000000
  eigenvalues    EBANDS =      -380.79809810
  atomic energy  EATOM  =      4660.85560985
  Solvation  Ediel_sol  =         0.00000000
  ---------------------------------------------------
  free energy    TOTEN  =       -32.02368082 eV

  energy without entropy =      -32.02368082  energy(sigma->0) =      -32.02368082


--------------------------------------------------------------------------------------------------------




 average (electrostatic) potential at core
  the test charge radii are     1.1312  1.4837  1.1249  0.9406
  (the norm of the test charge is              1.0000)
       1 -48.9714       2 -48.9714       3 -41.5441       4 -41.7994       5 -93.7112
       6 -93.7112       7 -93.7112       8 -93.7112       9 -93.7112      10 -93.7112
 
 
 
 E-fermi :   0.4107     XC(G=0):  -8.2309     alpha+bet : -7.8115


 k-point     1 :       0.5000    0.2500    0.7500
  band No.  band energies     occupation 
      1     -19.2254      2.00000
      2     -19.2254      2.00000
      3     -13.5598      2.00000
      4     -13.2673      2.00000
      5     -13.2109      2.00000
      6     -13.2109      2.00000
      7     -13.0321      2.00000
      8     -12.9732      2.00000
      9      -6.0758      2.00000
     10      -6.0758      2.00000
     11      -6.0752      2.00000
     12      -6.0707      2.00000
     13      -6.0271      2.00000
     14      -6.0249      2.00000
     15      -4.8663      2.00000
     16      -3.3052      2.00000
     17      -2.7423      2.00000
     18      -2.7423      2.00000
     19      -2.5352      2.00000
     20      -2.1134      2.00000
     21      -2.1134      2.00000
     22      -2.0887      2.00000
     23      -1.8604      2.00000
     24      -1.4294      2.00000
     25      -1.4294      2.00000
     26      -1.3408      2.00000
     27      -1.2235      2.00000
     28      -1.1879      2.00000
     29      -1.1879      2.00000
     30      -1.1544      2.00000
     31      -0.8312      2.00000
     32      -0.8312      2.00000
     33      -0.5587      2.00000
     34      -0.5587      2.00000
     35      -0.4981      2.00000
     36      -0.4424      2.00000
     37      -0.0284      2.00000
     38       3.7265      0.00000
     39       5.0152      0.00000
     40       7.0542      0.00000
     41       7.0542      0.00000
     42       7.5855      0.00000
     43       7.5855      0.00000
     44       7.6646      0.00000
     45       7.6646      0.00000
     46       7.7261      0.00000
     47       7.8156      0.00000
     48       8.0540      0.00000
     49       8.2855      0.00000
     50       8.3588      0.00000
     51       8.3794      0.00000
     52       8.5620      0.00000
     53       8.5620      0.00000
     54       9.0768      0.00000
     55       9.0768      0.00000
     56       9.1703      0.00000
     57       9.2000      0.00000
     58       9.2000      0.00000
     59       9.7402      0.00000
     60      10.2177      0.00000
     61      10.4076      0.00000
     62      10.9309      0.00000
     63      10.9309      0.00000
     64      11.3015      0.00000
     65      11.4934      0.00000
     66      11.4934      0.00000
     67      11.8615      0.00000
     68      11.8942      0.00000
     69      11.8942      0.00000
     70      12.5433      0.00000
     71      12.6342      0.00000
     72      13.0225      0.00000

 k-point     2 :       0.5000    0.2632    0.7368
  band No.  band energies     occupation 
      1     -19.2254      2.00000
      2     -19.2254      2.00000
      3     -13.5599      2.00000
      4     -13.2682      2.00000
      5     -13.2106      2.00000
      6     -13.2103      2.00000
      7     -13.0318      2.00000
      8     -12.9733      2.00000
      9      -6.0775      2.00000
     10      -6.0767      2.00000
     11      -6.0737      2.00000
     12      -6.0701      2.00000
     13      -6.0273      2.00000
     14      -6.0250      2.00000
     15      -4.8661      2.00000
     16      -3.3059      2.00000
     17      -2.7600      2.00000
     18      -2.7468      2.00000
     19      -2.5157      2.00000
     20      -2.1169      2.00000
     21      -2.1127      2.00000
     22      -2.0798      2.00000
     23      -1.8612      2.00000
     24      -1.4333      2.00000
     25      -1.4290      2.00000
     26      -1.3435      2.00000
     27      -1.2236      2.00000
     28      -1.1880      2.00000
     29      -1.1853      2.00000
     30      -1.1464      2.00000
     31      -0.8313      2.00000
     32      -0.8313      2.00000
     33      -0.5594      2.00000
     34      -0.5594      2.00000
     35      -0.4986      2.00000
     36      -0.4408      2.00000
     37      -0.0288      2.00000
     38       3.7217      0.00000
     39       5.0082      0.00000
     40       7.0557      0.00000
     41       7.0574      0.00000
     42       7.5829      0.00000
     43       7.5844      0.00000
     44       7.6401      0.00000
     45       7.6600      0.00000
     46       7.7463      0.00000
     47       7.8179      0.00000
     48       8.0581      0.00000
     49       8.2869      0.00000
     50       8.3439      0.00000
     51       8.3586      0.00000
     52       8.5660      0.00000
     53       8.5724      0.00000
     54       9.0662      0.00000
     55       9.0814      0.00000
     56       9.1441      0.00000
     57       9.2021      0.00000
     58       9.2502      0.00000
     59       9.7469      0.00000
     60      10.2244      0.00000
     61      10.4100      0.00000
     62      10.9312      0.00000
     63      10.9320      0.00000
     64      11.2790      0.00000
     65      11.4759      0.00000
     66      11.5222      0.00000
     67      11.8791      0.00000
     68      11.8921      0.00000
     69      11.8922      0.00000
     70      12.5489      0.00000
     71      12.6390      0.00000
     72      13.0257      0.00000

 k-point     3 :       0.5000    0.2763    0.7237
  band No.  band energies     occupation 
      1     -19.2255      2.00000
      2     -19.2255      2.00000
      3     -13.5602      2.00000
      4     -13.2706      2.00000
      5     -13.2099      2.00000
      6     -13.2085      2.00000
      7     -13.0309      2.00000
      8     -12.9735      2.00000
      9      -6.0798      2.00000
     10      -6.0788      2.00000
     11      -6.0724      2.00000
     12      -6.0689      2.00000
     13      -6.0277      2.00000
     14      -6.0255      2.00000
     15      -4.8653      2.00000
     16      -3.3079      2.00000
     17      -2.8003      2.00000
     18      -2.7597      2.00000
     19      -2.4697      2.00000
     20      -2.1209      2.00000
     21      -2.1106      2.00000
     22      -2.0600      2.00000
     23      -1.8636      2.00000
     24      -1.4444      2.00000
     25      -1.4281      2.00000
     26      -1.3514      2.00000
     27      -1.2228      2.00000
     28      -1.1848      2.00000
     29      -1.1784      2.00000
     30      -1.1273      2.00000
     31      -0.8316      2.00000
     32      -0.8313      2.00000
     33      -0.5614      2.00000
     34      -0.5613      2.00000
     35      -0.4998      2.00000
     36      -0.4361      2.00000
     37      -0.0300      2.00000
     38       3.7074      0.00000
     39       4.9878      0.00000
     40       7.0601      0.00000
     41       7.0666      0.00000
     42       7.5750      0.00000
     43       7.5811      0.00000
     44       7.5958      0.00000
     45       7.6483      0.00000
     46       7.7774      0.00000
     47       7.8236      0.00000
     48       8.0699      0.00000
     49       8.2859      0.00000
     50       8.3041      0.00000
     51       8.3143      0.00000
     52       8.5750      0.00000
     53       8.5924      0.00000
     54       9.0277      0.00000
     55       9.0889      0.00000
     56       9.1524      0.00000
     57       9.2141      0.00000
     58       9.3187      0.00000
     59       9.7661      0.00000
     60      10.2442      0.00000
     61      10.4170      0.00000
     62      10.9323      0.00000
     63      10.9349      0.00000
     64      11.2335      0.00000
     65      11.4319      0.00000
     66      11.5869      0.00000
     67      11.8845      0.00000
     68      11.8863      0.00000
     69      11.9254      0.00000
     70      12.5648      0.00000
     71      12.6539      0.00000
     72      13.0352      0.00000

 k-point     4 :       0.5000    0.2895    0.7105
  band No.  band energies     occupation 
      1     -19.2255      2.00000
      2     -19.2255      2.00000
      3     -13.5607      2.00000
      4     -13.2743      2.00000
      5     -13.2088      2.00000
      6     -13.2060      2.00000
      7     -13.0293      2.00000
      8     -12.9739      2.00000
      9      -6.0821      2.00000
     10      -6.0812      2.00000
     11      -6.0714      2.00000
     12      -6.0680      2.00000
     13      -6.0283      2.00000
     14      -6.0263      2.00000
     15      -4.8640      2.00000
     16      -3.3115      2.00000
     17      -2.8481      2.00000
     18      -2.7800      2.00000
     19      -2.4123      2.00000
     20      -2.1216      2.00000
     21      -2.1071      2.00000
     22      -2.0340      2.00000
     23      -1.8673      2.00000
     24      -1.4607      2.00000
     25      -1.4271      2.00000
     26      -1.3634      2.00000
     27      -1.2196      2.00000
     28      -1.1763      2.00000
     29      -1.1687      2.00000
     30      -1.1023      2.00000
     31      -0.8320      2.00000
     32      -0.8313      2.00000
     33      -0.5647      2.00000
     34      -0.5641      2.00000
     35      -0.5019      2.00000
     36      -0.4284      2.00000
     37      -0.0320      2.00000
     38       3.6842      0.00000
     39       4.9552      0.00000
     40       7.0664      0.00000
     41       7.0795      0.00000
     42       7.5467      0.00000
     43       7.5600      0.00000
     44       7.5753      0.00000
     45       7.6352      0.00000
     46       7.8049      0.00000
     47       7.8307      0.00000
     48       8.0883      0.00000
     49       8.2395      0.00000
     50       8.2477      0.00000
     51       8.3070      0.00000
     52       8.5843      0.00000
     53       8.6098      0.00000
     54       8.9822      0.00000
     55       9.0880      0.00000
     56       9.1873      0.00000
     57       9.2463      0.00000
     58       9.3889      0.00000
     59       9.7953      0.00000
     60      10.2753      0.00000
     61      10.4286      0.00000
     62      10.9345      0.00000
     63      10.9387      0.00000
     64      11.1868      0.00000
     65      11.3754      0.00000
     66      11.6666      0.00000
     67      11.8739      0.00000
     68      11.8769      0.00000
     69      11.9848      0.00000
     70      12.5882      0.00000
     71      12.6793      0.00000
     72      13.0492      0.00000

 k-point     5 :       0.5000    0.3026    0.6974
  band No.  band energies     occupation 
      1     -19.2255      2.00000
      2     -19.2255      2.00000
      3     -13.5614      2.00000
      4     -13.2789      2.00000
      5     -13.2072      2.00000
      6     -13.2030      2.00000
      7     -13.0272      2.00000
      8     -12.9745      2.00000
      9      -6.0846      2.00000
     10      -6.0838      2.00000
     11      -6.0710      2.00000
     12      -6.0676      2.00000
     13      -6.0289      2.00000
     14      -6.0272      2.00000
     15      -4.8623      2.00000
     16      -3.3167      2.00000
     17      -2.8966      2.00000
     18      -2.8060      2.00000
     19      -2.3507      2.00000
     20      -2.1191      2.00000
     21      -2.1020      2.00000
     22      -2.0038      2.00000
     23      -1.8721      2.00000
     24      -1.4805      2.00000
     25      -1.4264      2.00000
     26      -1.3777      2.00000
     27      -1.2126      2.00000
     28      -1.1636      2.00000
     29      -1.1574      2.00000
     30      -1.0741      2.00000
     31      -0.8324      2.00000
     32      -0.8314      2.00000
     33      -0.5692      2.00000
     34      -0.5677      2.00000
     35      -0.5049      2.00000
     36      -0.4179      2.00000
     37      -0.0349      2.00000
     38       3.6527      0.00000
     39       4.9121      0.00000
     40       7.0732      0.00000
     41       7.0933      0.00000
     42       7.4962      0.00000
     43       7.5367      0.00000
     44       7.5659      0.00000
     45       7.6257      0.00000
     46       7.8254      0.00000
     47       7.8374      0.00000
     48       8.1116      0.00000
     49       8.1776      0.00000
     50       8.1829      0.00000
     51       8.3173      0.00000
     52       8.5916      0.00000
     53       8.6213      0.00000
     54       8.9416      0.00000
     55       9.0773      0.00000
     56       9.2354      0.00000
     57       9.2983      0.00000
     58       9.4572      0.00000
     59       9.8314      0.00000
     60      10.3152      0.00000
     61      10.4442      0.00000
     62      10.9384      0.00000
     63      10.9422      0.00000
     64      11.1474      0.00000
     65      11.3156      0.00000
     66      11.7539      0.00000
     67      11.8602      0.00000
     68      11.8646      0.00000
     69      12.0498      0.00000
     70      12.6162      0.00000
     71      12.7149      0.00000
     72      13.0657      0.00000

 k-point     6 :       0.5000    0.3158    0.6842
  band No.  band energies     occupation 
      1     -19.2255      2.00000
      2     -19.2255      2.00000
      3     -13.5623      2.00000
      4     -13.2840      2.00000
      5     -13.2053      2.00000
      6     -13.1998      2.00000
      7     -13.0246      2.00000
      8     -12.9752      2.00000
      9      -6.0871      2.00000
     10      -6.0865      2.00000
     11      -6.0713      2.00000
     12      -6.0680      2.00000
     13      -6.0294      2.00000
     14      -6.0281      2.00000
     15      -4.8602      2.00000
     16      -3.3240      2.00000
     17      -2.9429      2.00000
     18      -2.8362      2.00000
     19      -2.2881      2.00000
     20      -2.1136      2.00000
     21      -2.0950      2.00000
     22      -1.9705      2.00000
     23      -1.8777      2.00000
     24      -1.5025      2.00000
     25      -1.4266      2.00000
     26      -1.3929      2.00000
     27      -1.2012      2.00000
     28      -1.1487      2.00000
     29      -1.1454      2.00000
     30      -1.0442      2.00000
     31      -0.8329      2.00000
     32      -0.8314      2.00000
     33      -0.5745      2.00000
     34      -0.5716      2.00000
     35      -0.5088      2.00000
     36      -0.4047      2.00000
     37      -0.0385      2.00000
     38       3.6140      0.00000
     39       4.8605      0.00000
     40       7.0784      0.00000
     41       7.1049      0.00000
     42       7.4460      0.00000
     43       7.5061      0.00000
     44       7.5517      0.00000
     45       7.6210      0.00000
     46       7.8373      0.00000
     47       7.8422      0.00000
     48       8.1171      0.00000
     49       8.1226      0.00000
     50       8.1384      0.00000
     51       8.3305      0.00000
     52       8.5961      0.00000
     53       8.6274      0.00000
     54       8.9086      0.00000
     55       9.0633      0.00000
     56       9.2916      0.00000
     57       9.3621      0.00000
     58       9.5215      0.00000
     59       9.8716      0.00000
     60      10.3612      0.00000
     61      10.4627      0.00000
     62      10.9444      0.00000
     63      10.9446      0.00000
     64      11.1195      0.00000
     65      11.2581      0.00000
     66      11.8374      0.00000
     67      11.8443      0.00000
     68      11.8582      0.00000
     69      12.1161      0.00000
     70      12.6467      0.00000
     71      12.7584      0.00000
     72      13.0832      0.00000

 k-point     7 :       0.5000    0.3289    0.6711
  band No.  band energies     occupation 
      1     -19.2255      2.00000
      2     -19.2255      2.00000
      3     -13.5633      2.00000
      4     -13.2895      2.00000
      5     -13.2030      2.00000
      6     -13.1966      2.00000
      7     -13.0215      2.00000
      8     -12.9761      2.00000
      9      -6.0896      2.00000
     10      -6.0891      2.00000
     11      -6.0723      2.00000
     12      -6.0692      2.00000
     13      -6.0296      2.00000
     14      -6.0288      2.00000
     15      -4.8577      2.00000
     16      -3.3335      2.00000
     17      -2.9853      2.00000
     18      -2.8690      2.00000
     19      -2.2273      2.00000
     20      -2.1057      2.00000
     21      -2.0852      2.00000
     22      -1.9353      2.00000
     23      -1.8835      2.00000
     24      -1.5257      2.00000
     25      -1.4277      2.00000
     26      -1.4078      2.00000
     27      -1.1853      2.00000
     28      -1.1334      2.00000
     29      -1.1333      2.00000
     30      -1.0137      2.00000
     31      -0.8332      2.00000
     32      -0.8314      2.00000
     33      -0.5807      2.00000
     34      -0.5757      2.00000
     35      -0.5137      2.00000
     36      -0.3888      2.00000
     37      -0.0431      2.00000
     38       3.5692      0.00000
     39       4.8027      0.00000
     40       7.0801      0.00000
     41       7.1120      0.00000
     42       7.3979      0.00000
     43       7.4708      0.00000
     44       7.5303      0.00000
     45       7.6171      0.00000
     46       7.8395      0.00000
     47       7.8432      0.00000
     48       8.0593      0.00000
     49       8.0823      0.00000
     50       8.1674      0.00000
     51       8.3451      0.00000
     52       8.5982      0.00000
     53       8.6293      0.00000
     54       8.8834      0.00000
     55       9.0506      0.00000
     56       9.3527      0.00000
     57       9.4312      0.00000
     58       9.5802      0.00000
     59       9.9133      0.00000
     60      10.4103      0.00000
     61      10.4827      0.00000
     62      10.9459      0.00000
     63      10.9542      0.00000
     64      11.1048      0.00000
     65      11.2062      0.00000
     66      11.8268      0.00000
     67      11.8292      0.00000
     68      11.9444      0.00000
[...]
     30      -0.9724      2.00000
     31      -0.9628      2.00000
     32      -0.8674      2.00000
     33      -0.5922      2.00000
     34      -0.5509      2.00000
     35      -0.5308      2.00000
     36      -0.5093      2.00000
     37       0.1037      2.00000
     38       3.6612      0.00000
     39       4.9890      0.00000
     40       6.9882      0.00000
     41       7.2551      0.00000
     42       7.4104      0.00000
     43       7.4485      0.00000
     44       7.5206      0.00000
     45       7.5868      0.00000
     46       7.8703      0.00000
     47       8.0228      0.00000
     48       8.0270      0.00000
     49       8.1165      0.00000
     50       8.2907      0.00000
     51       8.4192      0.00000
     52       8.4999      0.00000
     53       8.5777      0.00000
     54       8.8437      0.00000
     55       9.0035      0.00000
     56       9.1874      0.00000
     57       9.3019      0.00000
     58       9.8399      0.00000
     59      10.1761      0.00000
     60      10.3685      0.00000
     61      10.4436      0.00000
     62      10.5380      0.00000
     63      10.7370      0.00000
     64      10.7752      0.00000
     65      11.3735      0.00000
     66      11.4709      0.00000
     67      11.9356      0.00000
     68      12.1308      0.00000
     69      12.3557      0.00000
     70      12.4247      0.00000
     71      12.6002      0.00000
     72      13.1552      0.00000

 k-point    98 :       0.3882    0.3618    0.7500
  band No.  band energies     occupation 
      1     -19.2264      2.00000
      2     -19.2246      2.00000
      3     -13.5629      2.00000
      4     -13.2730      2.00000
      5     -13.2091      2.00000
      6     -13.1980      2.00000
      7     -13.0438      2.00000
      8     -12.9658      2.00000
      9      -6.1021      2.00000
     10      -6.0785      2.00000
     11      -6.0659      2.00000
     12      -6.0589      2.00000
     13      -6.0352      2.00000
     14      -6.0191      2.00000
     15      -4.8755      2.00000
     16      -3.1979      2.00000
     17      -3.0362      2.00000
     18      -2.7015      2.00000
     19      -2.3594      2.00000
     20      -2.2197      2.00000
     21      -2.0705      2.00000
     22      -1.9588      2.00000
     23      -1.8911      2.00000
     24      -1.5281      2.00000
     25      -1.4025      2.00000
     26      -1.3974      2.00000
     27      -1.2063      2.00000
     28      -1.1597      2.00000
     29      -1.1106      2.00000
     30      -0.9678      2.00000
     31      -0.9582      2.00000
     32      -0.8782      2.00000
     33      -0.5966      2.00000
     34      -0.5506      2.00000
     35      -0.5295      2.00000
     36      -0.5102      2.00000
     37       0.1074      2.00000
     38       3.6593      0.00000
     39       4.9877      0.00000
     40       6.9849      0.00000
     41       7.2807      0.00000
     42       7.3897      0.00000
     43       7.4460      0.00000
     44       7.5204      0.00000
     45       7.5786      0.00000
     46       7.8698      0.00000
     47       8.0267      0.00000
     48       8.0269      0.00000
     49       8.1107      0.00000
     50       8.3059      0.00000
     51       8.4261      0.00000
     52       8.4941      0.00000
     53       8.5594      0.00000
     54       8.8439      0.00000
     55       9.0028      0.00000
     56       9.1888      0.00000
     57       9.3028      0.00000
     58       9.8665      0.00000
     59      10.2009      0.00000
     60      10.3752      0.00000
     61      10.4463      0.00000
     62      10.5125      0.00000
     63      10.7271      0.00000
     64      10.7533      0.00000
     65      11.3683      0.00000
     66      11.4694      0.00000
     67      11.9469      0.00000
     68      12.1430      0.00000
     69      12.3457      0.00000
     70      12.4349      0.00000
     71      12.5958      0.00000
     72      13.1595      0.00000

 k-point    99 :       0.3816    0.3684    0.7500
  band No.  band energies     occupation 
      1     -19.2264      2.00000
      2     -19.2245      2.00000
      3     -13.5630      2.00000
      4     -13.2731      2.00000
      5     -13.2091      2.00000
      6     -13.1978      2.00000
      7     -13.0440      2.00000
      8     -12.9657      2.00000
      9      -6.1024      2.00000
     10      -6.0785      2.00000
     11      -6.0659      2.00000
     12      -6.0588      2.00000
     13      -6.0353      2.00000
     14      -6.0190      2.00000
     15      -4.8756      2.00000
     16      -3.1930      2.00000
     17      -3.0433      2.00000
     18      -2.7011      2.00000
     19      -2.3570      2.00000
     20      -2.2205      2.00000
     21      -2.0703      2.00000
     22      -1.9559      2.00000
     23      -1.8926      2.00000
     24      -1.5290      2.00000
     25      -1.4037      2.00000
     26      -1.3979      2.00000
     27      -1.2060      2.00000
     28      -1.1593      2.00000
     29      -1.1076      2.00000
     30      -0.9710      2.00000
     31      -0.9468      2.00000
     32      -0.8874      2.00000
     33      -0.5992      2.00000
     34      -0.5504      2.00000
     35      -0.5286      2.00000
     36      -0.5108      2.00000
     37       0.1097      2.00000
     38       3.6582      0.00000
     39       4.9869      0.00000
     40       6.9830      0.00000
     41       7.3040      0.00000
     42       7.3694      0.00000
     43       7.4445      0.00000
     44       7.5202      0.00000
     45       7.5734      0.00000
     46       7.8695      0.00000
     47       8.0265      0.00000
     48       8.0300      0.00000
     49       8.1062      0.00000
     50       8.3171      0.00000
     51       8.4309      0.00000
     52       8.4900      0.00000
     53       8.5465      0.00000
     54       8.8442      0.00000
     55       9.0024      0.00000
     56       9.1897      0.00000
     57       9.3034      0.00000
     58       9.8835      0.00000
     59      10.2173      0.00000
     60      10.3793      0.00000
     61      10.4483      0.00000
     62      10.4955      0.00000
     63      10.7208      0.00000
     64      10.7392      0.00000
     65      11.3651      0.00000
     66      11.4686      0.00000
     67      11.9538      0.00000
     68      12.1509      0.00000
     69      12.3391      0.00000
     70      12.4413      0.00000
     71      12.5928      0.00000
     72      13.1621      0.00000

 k-point   100 :       0.3750    0.3750    0.7500
  band No.  band energies     occupation 
      1     -19.2264      2.00000
      2     -19.2245      2.00000
      3     -13.5630      2.00000
      4     -13.2732      2.00000
      5     -13.2091      2.00000
      6     -13.1977      2.00000
      7     -13.0441      2.00000
      8     -12.9656      2.00000
      9      -6.1024      2.00000
     10      -6.0785      2.00000
     11      -6.0659      2.00000
     12      -6.0587      2.00000
     13      -6.0353      2.00000
     14      -6.0190      2.00000
     15      -4.8757      2.00000
     16      -3.1912      2.00000
     17      -3.0458      2.00000
     18      -2.7010      2.00000
     19      -2.3562      2.00000
     20      -2.2208      2.00000
     21      -2.0703      2.00000
     22      -1.9549      2.00000
     23      -1.8932      2.00000
     24      -1.5294      2.00000
     25      -1.4041      2.00000
     26      -1.3981      2.00000
     27      -1.2059      2.00000
     28      -1.1592      2.00000
     29      -1.1065      2.00000
     30      -0.9721      2.00000
     31      -0.9421      2.00000
     32      -0.8915      2.00000
     33      -0.6001      2.00000
     34      -0.5504      2.00000
     35      -0.5283      2.00000
     36      -0.5110      2.00000
     37       0.1104      2.00000
     38       3.6578      0.00000
     39       4.9866      0.00000
     40       6.9823      0.00000
     41       7.3166      0.00000
     42       7.3579      0.00000
     43       7.4440      0.00000
     44       7.5202      0.00000
     45       7.5716      0.00000
     46       7.8694      0.00000
     47       8.0265      0.00000
     48       8.0312      0.00000
     49       8.1046      0.00000
     50       8.3213      0.00000
     51       8.4326      0.00000
     52       8.4885      0.00000
     53       8.5418      0.00000
     54       8.8443      0.00000
     55       9.0022      0.00000
     56       9.1900      0.00000
     57       9.3036      0.00000
     58       9.8894      0.00000
     59      10.2231      0.00000
     60      10.3807      0.00000
     61      10.4489      0.00000
     62      10.4895      0.00000
     63      10.7187      0.00000
     64      10.7343      0.00000
     65      11.3640      0.00000
     66      11.4683      0.00000
     67      11.9561      0.00000
     68      12.1536      0.00000
     69      12.3368      0.00000
     70      12.4434      0.00000
     71      12.5917      0.00000
     72      13.1630      0.00000


--------------------------------------------------------------------------------------------------------


 soft charge-density along one line, spin component           1
         0         1         2         3         4         5         6         7         8         9
 total charge-density along one line
 
 pseudopotential strength for first ion, spin component:           1
 17.788  -0.042  -0.000  -0.000   0.000   0.000   0.000  -0.000
 -0.042   0.005  -0.000  -0.000   0.000   0.000   0.000  -0.000
 -0.000  -0.000   2.070  -0.000  -0.000  -0.926   0.000   0.000
 -0.000  -0.000  -0.000   2.070  -0.000   0.000  -0.926   0.000
  0.000   0.000  -0.000  -0.000   2.070   0.000   0.000  -0.926
  0.000   0.000  -0.926   0.000   0.000   0.248  -0.000  -0.000
  0.000   0.000   0.000  -0.926   0.000  -0.000   0.248  -0.000
 -0.000  -0.000   0.000   0.000  -0.926  -0.000  -0.000   0.248
 -0.000  -0.000   0.000   0.000   0.000  -0.000  -0.000  -0.000
 -0.000  -0.000   0.000  -0.000   0.000  -0.000   0.000  -0.000
  0.000   0.000   0.000  -0.000  -0.000  -0.000   0.000   0.000
 -0.000  -0.000   0.000  -0.000   0.000  -0.000  -0.000  -0.000
 -0.000  -0.000   0.000   0.000   0.000  -0.000  -0.000  -0.000
 total augmentation occupancy for first ion, spin component:           1
  2.067  -0.268   0.000   0.000   0.000   0.000   0.000   0.000   0.000   0.000   0.000   0.000   0.000
 -0.268   1.067   0.000   0.000   0.000   0.000   0.000   0.000   0.000   0.000   0.000   0.000   0.000
  0.000   0.000   2.000   0.000   0.000   0.000   0.000   0.000   0.000   0.000   0.000   0.000   0.000
  0.000   0.000   0.000   2.000   0.000   0.000   0.000   0.000   0.000   0.000   0.000   0.000   0.000
  0.000   0.000   0.000   0.000   2.000   0.000   0.000   0.000   0.000   0.000   0.000   0.000   0.000
  0.000   0.000   0.000   0.000   0.000   0.000   0.000   0.000   0.000   0.000   0.000   0.000   0.000
  0.000   0.000   0.000   0.000   0.000   0.000   0.000   0.000   0.000   0.000   0.000   0.000   0.000
  0.000   0.000   0.000   0.000   0.000   0.000   0.000   0.000   0.000   0.000   0.000   0.000   0.000
  0.000   0.000   0.000   0.000   0.000   0.000   0.000   0.000   0.000   0.000   0.000   0.000   0.000
  0.000   0.000   0.000   0.000   0.000   0.000   0.000   0.000   0.000   0.000   0.000   0.000   0.000
  0.000   0.000   0.000   0.000   0.000   0.000   0.000   0.000   0.000   0.000   0.000   0.000   0.000
  0.000   0.000   0.000   0.000   0.000   0.000   0.000   0.000   0.000   0.000   0.000   0.000   0.000
  0.000   0.000   0.000   0.000   0.000   0.000   0.000   0.000   0.000   0.000   0.000   0.000   0.000


------------------------ aborting loop because EDIFF is reached ----------------------------------------


 


 total charge     
 
# of ion     s       p       d       tot
----------------------------------------
  1        1.844   4.715   0.017   6.576
  2        1.844   4.715   0.017   6.576
  3        0.985   1.091   0.355   2.430
  4        0.144   0.099   9.154   9.397
  5        1.597   3.545   0.000   5.142
  6        1.598   3.520   0.000   5.117
  7        1.597   3.545   0.000   5.142
  8        1.598   3.507   0.000   5.105
  9        1.598   3.507   0.000   5.105
 10        1.598   3.520   0.000   5.117
------------------------------------------------
tot       14.402  31.763   9.543  55.709
 
    CHARGE:  cpu time    0.3749: real time    0.3745
    FORLOC:  cpu time    0.0030: real time    0.0029
    FORNL :  cpu time    1.1448: real time    1.1474
    STRESS:  cpu time    8.2627: real time    8.2867
    FORCOR:  cpu time    0.0210: real time    0.0220
    FORHAR:  cpu time    0.0070: real time    0.0068
    OFIELD:  cpu time    0.0000: real time    0.0000

  FORCE on cell =-STRESS in cart. coord.  units (eV):
  Direction    XX          YY          ZZ          XY          YZ          ZX
  --------------------------------------------------------------------------------------
  Alpha Z   180.20154   180.20154   180.20154
  Ewald   -1213.35849 -1213.35853 -1213.35854    -0.00003     0.00003    -0.00002
  Hartree   349.21352   349.21353   349.21353     0.00000    -0.00000     0.00000
  E(xc)    -295.14477  -295.14477  -295.14477     0.00001     0.00000     0.00000
  Local    -473.73294  -473.73277  -473.73274    -0.00007    -0.00007    -0.00005
  n-local   466.63087   468.93731   468.16568    -0.43780     0.76866    -1.04236
  augment  -109.96294  -109.96305  -109.96308     0.00010     0.00004     0.00007
  Kinetic  1090.51261  1098.85709  1095.89963    -1.36229     3.11012    -3.45203
  Fock        0.00000     0.00000     0.00000     0.00000     0.00000     0.00000
  -------------------------------------------------------------------------------------
  Total       0.21699     0.21699     0.21699     0.00000     0.00000     0.00000
  in kB       1.14271     1.14271     1.14271     0.00000     0.00000     0.00000
  external pressure =        1.14 kB  Pullay stress =        0.00 kB


 VOLUME and BASIS-vectors are now :
 -----------------------------------------------------------------------------
  energy-cutoff  :      400.00
  volume of cell :      304.25
      direct lattice vectors                 reciprocal lattice vectors
     7.549413527  0.000000000  0.000000000     0.132460620 -0.076476175 -0.054076822
     3.774706763  6.537983898 -0.000000000     0.000000000  0.152952350 -0.054076822
     3.774706763  2.179327966  6.164070332     0.000000000  0.000000000  0.162230466

  length of vectors
     7.549413527  7.549413527  7.549413527     0.162230466  0.162230466  0.162230466


 FORCES acting on ions
    electron-ion (+dipol)            ewald-force                    non-local-force                 convergence-correction
 -----------------------------------------------------------------------------------------------
   -.145E-05 0.447E-04 0.476E-04   0.273E-05 0.152E-04 0.179E-04   0.136E-18 0.118E-17 0.678E-18   -.104E-05 -.225E-04 -.258E-04
   0.779E-05 0.560E-04 -.781E-05   0.447E-04 -.186E-04 -.603E-05   0.203E-18 -.137E-17 -.894E-18   -.399E-04 0.482E-05 0.691E-05
   0.244E-05 0.121E-06 -.115E-06   0.180E-04 -.473E-05 0.149E-06   -.529E-22 0.265E-22 0.000E+00   -.438E-05 0.222E-05 0.258E-06
   0.718E-05 0.491E-04 -.621E-05   0.593E-04 0.161E-04 -.331E-05   -.212E-21 0.000E+00 0.000E+00   -.450E-04 -.271E-03 0.337E-04
   -.500E-03 0.444E+02 0.314E+02   -.715E-05 -.437E+02 -.309E+02   -.260E-17 -.668E+00 -.472E+00   0.121E-03 0.382E-01 0.271E-01
   0.384E+02 0.222E+02 -.314E+02   -.379E+02 -.219E+02 0.309E+02   -.578E+00 -.334E+00 0.472E+00   0.332E-01 0.191E-01 -.270E-01
   0.277E-05 -.444E+02 -.314E+02   0.136E-04 0.437E+02 0.309E+02   -.347E-17 0.668E+00 0.472E+00   -.133E-04 -.383E-01 -.270E-01
   0.384E+02 -.222E+02 0.314E+02   -.379E+02 0.219E+02 -.309E+02   -.578E+00 0.334E+00 -.472E+00   0.332E-01 -.192E-01 0.271E-01
   -.384E+02 0.222E+02 -.314E+02   0.379E+02 -.219E+02 0.309E+02   0.578E+00 -.334E+00 0.472E+00   -.330E-01 0.191E-01 -.271E-01
   -.384E+02 -.222E+02 0.314E+02   0.379E+02 0.219E+02 -.309E+02   0.578E+00 0.334E+00 -.472E+00   -.330E-01 -.192E-01 0.271E-01
 -----------------------------------------------------------------------------------------------
   -.233E-02 0.702E-03 -.981E-04   0.284E-13 0.711E-14 -.711E-14   0.222E-15 0.167E-15 0.000E+00   0.434E-03 -.382E-03 0.472E-04
 
 
 POSITION                                       TOTAL-FORCE (eV/Angst)
 -----------------------------------------------------------------------------------
     11.32412      6.53798      4.62305        -0.000000     -0.000000      0.000000
      3.77471      2.17933      1.54102        -0.000000     -0.000000      0.000000
      0.00000      0.00000      0.00000        -0.000000     -0.000000      0.000000
      7.54941      4.35866      3.08204        -0.000000     -0.000000      0.000000
      7.54941      2.10216      1.48645        -0.000000     -0.008248     -0.005832
      5.59523      3.23041      4.67762        -0.007143     -0.004124      0.005832
      7.54941      6.61515      4.67762        -0.000000      0.008248      0.005832
      5.59523      5.48690      1.48645        -0.007143      0.004124     -0.005832
      9.50360      3.23041      4.67762         0.007143     -0.004124      0.005832
      9.50360      5.48690      1.48645         0.007143      0.004124     -0.005832
 -----------------------------------------------------------------------------------
    total drift:                               -0.001898      0.000320     -0.000051


--------------------------------------------------------------------------------------------------------



  FREE ENERGIE OF THE ION-ELECTRON SYSTEM (eV)
  ---------------------------------------------------
  free  energy   TOTEN  =       -32.02368082 eV

  energy  without entropy=      -32.02368082  energy(sigma->0) =      -32.02368082
 


--------------------------------------------------------------------------------------------------------


    POTLOK:  cpu time    0.0250: real time    0.0255


--------------------------------------------------------------------------------------------------------


 writing wavefunctions
     LOOP+:  cpu time  105.4220: real time  108.6853
    4ORBIT:  cpu time    0.0000: real time    0.0000
 


 total charge     
 
# of ion     s       p       d       tot
----------------------------------------
  1        1.844   4.715   0.017   6.576
  2        1.844   4.715   0.017   6.576
  3        0.985   1.091   0.355   2.430
  4        0.144   0.099   9.154   9.397
  5        1.597   3.545   0.000   5.142
  6        1.598   3.520   0.000   5.117
  7        1.597   3.545   0.000   5.142
  8        1.598   3.507   0.000   5.105
  9        1.598   3.507   0.000   5.105
 10        1.598   3.520   0.000   5.117
------------------------------------------------
tot       14.402  31.763   9.543  55.709
 

 total amount of memory used by VASP on root node   381628. kBytes
========================================================================

   base      :      30000. kBytes
   nonl-proj :     324380. kBytes
   fftplans  :       1544. kBytes
   grid      :       7233. kBytes
   one-center:        155. kBytes
   wavefun   :      18316. kBytes
 
  
  
 General timing and accounting informations for this job:
 ========================================================
  
                  Total CPU time used (sec):      110.787
                            User time (sec):      109.715
                          System time (sec):        1.072
                         Elapsed time (sec):      115.438
  
                   Maximum memory used (kb):      556664.
                   Average memory used (kb):           0.
  
                          Minor page faults:        30873
                          Major page faults:            0
                 Voluntary context switches:          795
