 vasp.5.4.4.18Apr17-6-g9f103f2a35 (build Jan 09 2018 19:26:39) complex          
  
 executed on             LinuxIFC date 2020.03.31  14:49:46
 running on   28 total cores
 distrk:  each k-point on   28 cores,    1 groups
 distr:  one band on NCORES_PER_BAND=   1 cores,   28 groups


--------------------------------------------------------------------------------------------------------


 INCAR:
 POTCAR:   PAW_PBE Cs_sv 08Apr2002                
 POTCAR:   PAW_PBE Ag 06Sep2000                   
 POTCAR:   PAW_PBE Fe_sv_h 08Apr2002              
 POTCAR:    PAW_PBE Cl 17Jan2003                  

 ----------------------------------------------------------------------------- 
|                                                                             |
|           W    W    AA    RRRRR   N    N  II  N    N   GGGG   !!!           |
|           W    W   A  A   R    R  NN   N  II  NN   N  G    G  !!!           |
|           W    W  A    A  R    R  N N  N  II  N N  N  G       !!!           |
|           W WW W  AAAAAA  RRRRR   N  N N  II  N  N N  G  GGG   !            |
|           WW  WW  A    A  R   R   N   NN  II  N   NN  G    G                |
|           W    W  A    A  R    R  N    N  II  N    N   GGGG   !!!           |
|                                                                             |
|      For optimal performance we recommend to set                            |
|        NCORE= 4 - approx SQRT( number of cores)                             |
|      NCORE specifies how many cores store one orbital (NPAR=cpu/NCORE).     |
|      This setting can  greatly improve the performance of VASP for DFT.     |
|      The default,   NCORE=1            might be grossly inefficient         |
|      on modern multi-core architectures or massively parallel machines.     |
|      Do your own testing !!!!                                               |
|      Unfortunately you need to use the default for GW and RPA calculations. |
|      (for HF NCORE is supported but not extensively tested yet)             |
|                                                                             |
 ----------------------------------------------------------------------------- 

 POTCAR:   PAW_PBE Cs_sv 08Apr2002                
   VRHFIN =Cs: 5s5p6s                                                           
   LEXCH  = PE                                                                  
   EATOM  =   555.6835 eV,   40.8416 Ry                                         
                                                                                
   TITEL  = PAW_PBE Cs_sv 08Apr2002                                             
   LULTRA =        F    use ultrasoft PP ?                                      
   IUNSCR =        1    unscreen: 0-lin 1-nonlin 2-no                           
   RPACOR =    2.200    partial core radius                                     
   POMASS =  132.900; ZVAL   =    9.000    mass and valenz                      
   RCORE  =    2.500    outmost cutoff radius                                   
   RWIGS  =    2.500; RWIGS  =    1.323    wigner-seitz radius (au A)           
   ENMAX  =  220.318; ENMIN  =  165.238 eV                                      
   RCLOC  =    2.207    cutoff for local pot                                    
   LCOR   =        T    correct aug charges                                     
   LPAW   =        T    paw PP                                                  
   EAUG   =  407.933                                                            
   DEXC   =    -.004                                                            
   RMAX   =    3.106    core radius for proj-oper                               
   RAUG   =    1.300    factor for augmentation sphere                          
   RDEP   =    2.590    radius for radial grids                                 
   QCUT   =   -4.024; QGAM   =    8.048    optimization parameters              
                                                                                
   Description                                                                  
     l     E      TYP  RCUT    TYP  RCUT                                        
     0   .000     23  1.900                                                     
     0   .000     23  1.900                                                     
     0   .000     23  1.900                                                     
     0   .000     23  1.900                                                     
     1   .000     23  2.500                                                     
     1  -.200     23  2.500                                                     
     2   .000     23  2.500                                                     
  local pseudopotential read in
  partial core-charges read in
  atomic valenz-charges read in
  non local Contribution for L=           0  read in
    real space projection operators read in
  non local Contribution for L=           0  read in
    real space projection operators read in
  non local Contribution for L=           1  read in
    real space projection operators read in
  non local Contribution for L=           1  read in
    real space projection operators read in
  non local Contribution for L=           2  read in
    real space projection operators read in
    PAW grid and wavefunctions read in
 
   number of l-projection  operators is LMAX  =           5
   number of lm-projection operators is LMMAX =          13
 
 POTCAR:   PAW_PBE Ag 06Sep2000                   
   VRHFIN =Ag : s1 d10                                                          
   LEXCH  = PE                                                                  
   EATOM  =  1037.4134 eV,   76.2477 Ry                                         
                                                                                
   TITEL  = PAW_PBE Ag 06Sep2000                                                
   LULTRA =        F    use ultrasoft PP ?                                      
   IUNSCR =        1    unscreen: 0-lin 1-nonlin 2-no                           
   RPACOR =    2.000    partial core radius                                     
   POMASS =  107.868; ZVAL   =   11.000    mass and valenz                      
   RCORE  =    2.400    outmost cutoff radius                                   
   RWIGS  =    2.840; RWIGS  =    1.503    wigner-seitz radius (au A)           
   ENMAX  =  249.846; ENMIN  =  187.385 eV                                      
   RCLOC  =    1.962    cutoff for local pot                                    
   LCOR   =        T    correct aug charges                                     
   LPAW   =        T    paw PP                                                  
   EAUG   =  412.496                                                            
   DEXC   =    -.047                                                            
   RMAX   =    2.917    core radius for proj-oper                               
   RAUG   =    1.300    factor for augmentation sphere                          
   RDEP   =    2.416    radius for radial grids                                 
   QCUT   =   -4.285; QGAM   =    8.570    optimization parameters              
                                                                                
   Description                                                                  
     l     E      TYP  RCUT    TYP  RCUT                                        
     2   .000     23  2.400                                                     
     2   .000     23  2.400                                                     
     0   .000     23  2.400                                                     
     0   .000     23  2.400                                                     
     1  -.200     23  2.400                                                     
     1  1.500     23  2.400                                                     
     3   .000      7   .000                                                     
  local pseudopotential read in
  partial core-charges read in
  atomic valenz-charges read in
  non local Contribution for L=           2  read in
    real space projection operators read in
  non local Contribution for L=           2  read in
    real space projection operators read in
  non local Contribution for L=           0  read in
    real space projection operators read in
  non local Contribution for L=           0  read in
    real space projection operators read in
  non local Contribution for L=           1  read in
    real space projection operators read in
  non local Contribution for L=           1  read in
    real space projection operators read in
    PAW grid and wavefunctions read in
 
   number of l-projection  operators is LMAX  =           6
   number of lm-projection operators is LMMAX =          18
 
 POTCAR:   PAW_PBE Fe_sv_h 08Apr2002              
   VRHFIN =Fe:  d7 s1                                                           
   LEXCH  = PE                                                                  
   EATOM  =  3377.7268 eV,  248.2559 Ry                                         
                                                                                
   TITEL  = PAW_PBE Fe_sv_h 08Apr2002                                           
   LULTRA =        F    use ultrasoft PP ?                                      
   IUNSCR =        1    unscreen: 0-lin 1-nonlin 2-no                           
   RPACOR =    1.400    partial core radius                                     
   POMASS =   55.847; ZVAL   =   16.000    mass and valenz                      
   RCORE  =    1.600    outmost cutoff radius                                   
   RWIGS  =    2.200; RWIGS  =    1.164    wigner-seitz radius (au A)           
   ENMAX  =  547.365; ENMIN  =  410.523 eV                                      
   RCLOC  =     .801    cutoff for local pot                                    
   LCOR   =        T    correct aug charges                                     
   LPAW   =        T    paw PP                                                  
   EAUG   =  946.219                                                            
   DEXC   =     .000                                                            
   RMAX   =    1.971    core radius for proj-oper                               
   RAUG   =    1.300    factor for augmentation sphere                          
   RDEP   =    1.688    radius for radial grids                                 
   QCUT   =   -6.343; QGAM   =   12.685    optimization parameters              
                                                                                
   Description                                                                  
     l     E      TYP  RCUT    TYP  RCUT                                        
     0   .000     23  1.600                                                     
     0   .000     23  1.600                                                     
     1   .000     23  1.600                                                     
     1  2.000     23  1.600                                                     
     2   .000     23  1.600                                                     
     2   .000     23  1.600                                                     
     3   .000      7   .000                                                     
  local pseudopotential read in
  partial core-charges read in
  atomic valenz-charges read in
  non local Contribution for L=           0  read in
    real space projection operators read in
  non local Contribution for L=           0  read in
    real space projection operators read in
  non local Contribution for L=           1  read in
    real space projection operators read in
  non local Contribution for L=           1  read in
    real space projection operators read in
  non local Contribution for L=           2  read in
    real space projection operators read in
  non local Contribution for L=           2  read in
    real space projection operators read in
    PAW grid and wavefunctions read in
 
   number of l-projection  operators is LMAX  =           6
   number of lm-projection operators is LMMAX =          18
 
 POTCAR:    PAW_PBE Cl 17Jan2003                  
   VRHFIN =Cl: s2p5                                                             
   LEXCH  = PE                                                                  
   EATOM  =   409.7259 eV,   30.1140 Ry                                         
                                                                                
   TITEL  = PAW_PBE Cl 17Jan2003                                                
   LULTRA =        F    use ultrasoft PP ?                                      
   IUNSCR =        1    unscreen: 0-lin 1-nonlin 2-no                           
   RPACOR =    1.500    partial core radius                                     
   POMASS =   35.453; ZVAL   =    7.000    mass and valenz                      
   RCORE  =    1.900    outmost cutoff radius                                   
   RWIGS  =    2.100; RWIGS  =    1.111    wigner-seitz radius (au A)           
   ENMAX  =  280.000; ENMIN  =  196.854 eV                                      
   ICORE  =        2    local potential                                         
   LCOR   =        T    correct aug charges                                     
   LPAW   =        T    paw PP                                                  
   EAUG   =  356.192                                                            
   DEXC   =     .000                                                            
   RMAX   =    2.846    core radius for proj-oper                               
   RAUG   =    1.300    factor for augmentation sphere                          
   RDEP   =    2.020    radius for radial grids                                 
   QCUT   =   -4.392; QGAM   =    8.784    optimization parameters              
                                                                                
   Description                                                                  
     l     E      TYP  RCUT    TYP  RCUT                                        
     0   .000     23  1.900                                                     
     0   .000     23  1.900                                                     
     1   .000     23  1.900                                                     
     1   .000     23  1.900                                                     
     2   .000     23  1.900                                                     
  local pseudopotential read in
  partial core-charges read in
  atomic valenz-charges read in
  non local Contribution for L=           0  read in
    real space projection operators read in
  non local Contribution for L=           0  read in
    real space projection operators read in
  non local Contribution for L=           1  read in
    real space projection operators read in
  non local Contribution for L=           1  read in
    real space projection operators read in
    PAW grid and wavefunctions read in
 
   number of l-projection  operators is LMAX  =           4
   number of lm-projection operators is LMMAX =           8
 

 ----------------------------------------------------------------------------- 
|                                                                             |
|  ADVICE TO THIS USER RUNNING 'VASP/VAMP'   (HEAR YOUR MASTER'S VOICE ...):  |
|                                                                             |
|      You have a (more or less) 'large supercell' and for larger cells       |
|      it might be more efficient to use real space projection operators      |
|      So try LREAL= Auto  in the INCAR   file.                               |
|      Mind: If you want to do a very accurate calculations keep the          |
|      reciprocal projection scheme          (i.e. LREAL=.FALSE.)             |
|                                                                             |
 ----------------------------------------------------------------------------- 

 PAW_PBE Cs_sv 08Apr2002                :
 energy of atom  1       EATOM= -555.6835
 kinetic energy error for atom=    0.0009 (will be added to EATOM!!)
 PAW_PBE Ag 06Sep2000                   :
 energy of atom  2       EATOM=-1037.4134
 kinetic energy error for atom=    0.0010 (will be added to EATOM!!)
 PAW_PBE Fe_sv_h 08Apr2002              :
 energy of atom  3       EATOM=-3377.7268
 kinetic energy error for atom=    0.0650 (will be added to EATOM!!)
  PAW_PBE Cl 17Jan2003                  :
 energy of atom  4       EATOM= -409.7259
 kinetic energy error for atom=    0.0010 (will be added to EATOM!!)
 
 
 POSCAR: cs2agfecl6                              
  positions in direct lattice
  velocities in cartesian coordinates
 exchange correlation table for  LEXCH =        8
   RHO(1)=    0.500       N(1)  =     2000
   RHO(2)=  100.500       N(2)  =     4000
 


--------------------------------------------------------------------------------------------------------


 ion  position               nearest neighbor table
   1  0.250  0.750  0.750-
   2  0.750  0.250  0.250-
   3  0.750  0.250  0.750-
   4  0.250  0.750  0.250-
   5  0.750  0.750  0.250-
   6  0.250  0.250  0.750-
   7  0.250  0.250  0.250-
   8  0.750  0.750  0.750-
   9  0.500  0.000  0.500-  25 2.78  39 2.78  17 2.78  26 2.78  18 2.78  40 2.78
  10  0.500  0.500  0.000-  23 2.78  33 2.78  19 2.78  24 2.78  20 2.78  34 2.78
  11  0.000  0.500  0.500-  31 2.78  35 2.78  21 2.78  32 2.78  22 2.78  36 2.78
  12  0.000  0.000  0.000-  27 2.78  28 2.78  29 2.78  30 2.78  37 2.78  38 2.78
  13  0.500  0.500  0.500-  17 2.43  18 2.43  19 2.43  20 2.43  21 2.43  22 2.43
  14  0.500  0.000  0.000-  24 2.43  26 2.43  27 2.43  28 2.43  25 2.43  23 2.43
  15  0.000  0.500  0.000-  29 2.43  30 2.43  32 2.43  34 2.43  33 2.43  31 2.43
  16  0.000  0.000  0.500-  36 2.43  37 2.43  38 2.43  40 2.43  39 2.43  35 2.43
  17  0.500  0.734  0.500-  13 2.43   9 2.78
  18  0.500  0.266  0.500-  13 2.43   9 2.78
  19  0.500  0.500  0.734-  13 2.43  10 2.78
  20  0.500  0.500  0.266-  13 2.43  10 2.78
  21  0.734  0.500  0.500-  13 2.43  11 2.78
  22  0.266  0.500  0.500-  13 2.43  11 2.78
  23  0.500  0.234  0.000-  14 2.43  10 2.78
  24  0.500  0.766  0.000-  14 2.43  10 2.78
  25  0.500  0.000  0.234-  14 2.43   9 2.78
  26  0.500  0.000  0.766-  14 2.43   9 2.78
  27  0.734  0.000  0.000-  14 2.43  12 2.78
  28  0.266  0.000  0.000-  14 2.43  12 2.78
  29  0.000  0.734  0.000-  15 2.43  12 2.78
  30  0.000  0.266  0.000-  15 2.43  12 2.78
  31  0.000  0.500  0.234-  15 2.43  11 2.78
  32  0.000  0.500  0.766-  15 2.43  11 2.78
  33  0.234  0.500  0.000-  15 2.43  10 2.78
  34  0.766  0.500  0.000-  15 2.43  10 2.78
  35  0.000  0.234  0.500-  16 2.43  11 2.78
  36  0.000  0.766  0.500-  16 2.43  11 2.78
  37  0.000  0.000  0.734-  16 2.43  12 2.78
  38  0.000  0.000  0.266-  16 2.43  12 2.78
  39  0.234  0.000  0.500-  16 2.43   9 2.78
  40  0.766  0.000  0.500-  16 2.43   9 2.78
 
  LATTYP: Found a simple cubic cell.
 ALAT       =    10.4190054737
  
  Lattice vectors:
  
 A1 = (  10.4190054737,   0.0000000000,   0.0000000000)
 A2 = (   0.0000000000,  10.4190054737,   0.0000000000)
 A3 = (   0.0000000000,   0.0000000000,  10.4190054737)


Analysis of symmetry for initial positions (statically):
=====================================================================
 Subroutine PRICEL returns following result:
 
  LATTYP: Found a face centered cubic cell.
 ALAT       =    10.4190054737
  
  Lattice vectors:
  
 A1 = (   5.2095027369,   5.2095027369,   0.0000000000)
 A2 = (   5.2095027369,   0.0000000000,  -5.2095027369)
 A3 = (   0.0000000000,   5.2095027369,  -5.2095027369)
 
   4 primitive cells build up your supercell.
 

 Routine SETGRP: Setting up the symmetry group for a 
 simple cubic supercell.


 Subroutine GETGRP returns: Found 48 space group operations
 (whereof 48 operations were pure point group operations)
 out of a pool of 48 trial point group operations.


The static configuration has the point symmetry O_h .


Analysis of symmetry for dynamics (positions and initial velocities):
=====================================================================
 Subroutine PRICEL returns following result:
 
  LATTYP: Found a face centered cubic cell.
 ALAT       =    10.4190054737
  
  Lattice vectors:
  
 A1 = (   5.2095027369,   5.2095027369,   0.0000000000)
 A2 = (   5.2095027369,   0.0000000000,  -5.2095027369)
 A3 = (   0.0000000000,   5.2095027369,  -5.2095027369)
 
   4 primitive cells build up your supercell.
 

 Routine SETGRP: Setting up the symmetry group for a 
 simple cubic supercell.


 Subroutine GETGRP returns: Found 48 space group operations
 (whereof 48 operations were pure point group operations)
 out of a pool of 48 trial point group operations.


The dynamic configuration has the point symmetry O_h .


Analysis of structural, dynamic, and magnetic symmetry:
=====================================================================
 Subroutine PRICEL returns following result:
 
  LATTYP: Found a face centered cubic cell.
 ALAT       =    10.4190054737
  
  Lattice vectors:
  
 A1 = (   5.2095027369,   5.2095027369,   0.0000000000)
 A2 = (   5.2095027369,   0.0000000000,  -5.2095027369)
 A3 = (   0.0000000000,   5.2095027369,  -5.2095027369)
 
   4 primitive cells build up your supercell.
 

 Routine SETGRP: Setting up the symmetry group for a 
 simple cubic supercell.


 Subroutine GETGRP returns: Found 48 space group operations
 (whereof 48 operations were pure point group operations)
 out of a pool of 48 trial point group operations.


The magnetic configuration has the point symmetry O_h .


 Subroutine INISYM returns: Found 48 space group operations
 (whereof 48 operations are pure point group operations),
 and found     4 'primitive' translations

 
 
 KPOINTS: cs2agfecl6_band                         
  interpolating k-points between supplied coordinates
  k-points in reciprocal lattice
Space group operators:
 irot       det(A)        alpha          n_x          n_y          n_z        tau_x        tau_y        tau_z
    1     1.000000     0.000000     1.000000     0.000000     0.000000     0.000000     0.000000     0.000000
    2    -1.000000     0.000000     1.000000     0.000000     0.000000     0.000000     0.000000     0.000000
    3     1.000000   120.000000    -0.577350    -0.577350    -0.577350     0.000000     0.000000     0.000000
    4    -1.000000   120.000000    -0.577350    -0.577350    -0.577350     0.000000     0.000000     0.000000
    5     1.000000   120.000000     0.577350     0.577350     0.577350     0.000000     0.000000     0.000000
    6    -1.000000   120.000000     0.577350     0.577350     0.577350     0.000000     0.000000     0.000000
    7     1.000000    90.000000     0.000000     0.000000    -1.000000     0.000000     0.000000     0.000000
    8    -1.000000    90.000000     0.000000     0.000000    -1.000000     0.000000     0.000000     0.000000
    9     1.000000   180.000000     0.000000     0.707107     0.707107     0.000000     0.000000     0.000000
   10    -1.000000   180.000000     0.000000     0.707107     0.707107     0.000000     0.000000     0.000000
   11     1.000000    90.000000     0.000000     1.000000     0.000000     0.000000     0.000000     0.000000
   12    -1.000000    90.000000     0.000000     1.000000     0.000000     0.000000     0.000000     0.000000
   13     1.000000   180.000000     0.000000     0.000000     1.000000     0.000000     0.000000     0.000000
   14    -1.000000   180.000000     0.000000     0.000000     1.000000     0.000000     0.000000     0.000000
   15     1.000000   120.000000    -0.577350     0.577350     0.577350     0.000000     0.000000     0.000000
   16    -1.000000   120.000000    -0.577350     0.577350     0.577350     0.000000     0.000000     0.000000
   17     1.000000   120.000000    -0.577350     0.577350    -0.577350     0.000000     0.000000     0.000000
   18    -1.000000   120.000000    -0.577350     0.577350    -0.577350     0.000000     0.000000     0.000000
   19     1.000000    90.000000     0.000000     0.000000     1.000000     0.000000     0.000000     0.000000
   20    -1.000000    90.000000     0.000000     0.000000     1.000000     0.000000     0.000000     0.000000
   21     1.000000    90.000000    -1.000000     0.000000     0.000000     0.000000     0.000000     0.000000
   22    -1.000000    90.000000    -1.000000     0.000000     0.000000     0.000000     0.000000     0.000000
   23     1.000000   180.000000     0.707107     0.000000     0.707107     0.000000     0.000000     0.000000
   24    -1.000000   180.000000     0.707107     0.000000     0.707107     0.000000     0.000000     0.000000
   25     1.000000   120.000000     0.577350    -0.577350     0.577350     0.000000     0.000000     0.000000
   26    -1.000000   120.000000     0.577350    -0.577350     0.577350     0.000000     0.000000     0.000000
   27     1.000000   120.000000    -0.577350    -0.577350     0.577350     0.000000     0.000000     0.000000
   28    -1.000000   120.000000    -0.577350    -0.577350     0.577350     0.000000     0.000000     0.000000
   29     1.000000   180.000000     1.000000     0.000000     0.000000     0.000000     0.000000     0.000000
   30    -1.000000   180.000000     1.000000     0.000000     0.000000     0.000000     0.000000     0.000000
   31     1.000000    90.000000     0.000000    -1.000000     0.000000     0.000000     0.000000     0.000000
   32    -1.000000    90.000000     0.000000    -1.000000     0.000000     0.000000     0.000000     0.000000
   33     1.000000   180.000000     0.707107     0.707107     0.000000     0.000000     0.000000     0.000000
   34    -1.000000   180.000000     0.707107     0.707107     0.000000     0.000000     0.000000     0.000000
   35     1.000000    90.000000     1.000000     0.000000     0.000000     0.000000     0.000000     0.000000
   36    -1.000000    90.000000     1.000000     0.000000     0.000000     0.000000     0.000000     0.000000
   37     1.000000   120.000000     0.577350    -0.577350    -0.577350     0.000000     0.000000     0.000000
   38    -1.000000   120.000000     0.577350    -0.577350    -0.577350     0.000000     0.000000     0.000000
   39     1.000000   180.000000     0.000000     1.000000     0.000000     0.000000     0.000000     0.000000
   40    -1.000000   180.000000     0.000000     1.000000     0.000000     0.000000     0.000000     0.000000
   41     1.000000   120.000000     0.577350     0.577350    -0.577350     0.000000     0.000000     0.000000
   42    -1.000000   120.000000     0.577350     0.577350    -0.577350     0.000000     0.000000     0.000000
   43     1.000000   180.000000     0.000000    -0.707107     0.707107     0.000000     0.000000     0.000000
   44    -1.000000   180.000000     0.000000    -0.707107     0.707107     0.000000     0.000000     0.000000
   45     1.000000   180.000000     0.707107    -0.707107     0.000000     0.000000     0.000000     0.000000
   46    -1.000000   180.000000     0.707107    -0.707107     0.000000     0.000000     0.000000     0.000000
   47     1.000000   180.000000     0.707107     0.000000    -0.707107     0.000000     0.000000     0.000000
   48    -1.000000   180.000000     0.707107     0.000000    -0.707107     0.000000     0.000000     0.000000


--------------------------------------------------------------------------------------------------------




 Dimension of arrays:
   k-points           NKPTS =     80   k-points in BZ     NKDIM =     80   number of bands    NBANDS=    224
   number of dos      NEDOS =    301   number of ions     NIONS =     40
   non local maximal  LDIM  =      6   non local SUM 2l+1 LMDIM =     18
   total plane-waves  NPLWV = 884736
   max r-space proj   IRMAX =      1   max aug-charges    IRDMAX=  39303
   dimension x,y,z NGX =    96 NGY =   96 NGZ =   96
   dimension x,y,z NGXF=   192 NGYF=  192 NGZF=  192
   support grid    NGXF=   192 NGYF=  192 NGZF=  192
   ions per type =               8   4   4  24
   NGX,Y,Z   is equivalent  to a cutoff of  15.32, 15.32, 15.32 a.u.
   NGXF,Y,Z  is equivalent  to a cutoff of  30.64, 30.64, 30.64 a.u.

 SYSTEM =  SCF                                     
 POSCAR =  cs2agfecl6                              

 Startparameter for this run:
   NWRITE =      2    write-flag & timer
   PREC   = accura    normal or accurate (medium, high low for compatibility)
   ISTART =      0    job   : 0-new  1-cont  2-samecut
   ICHARG =      2    charge: 1-file 2-atom 10-const
   ISPIN  =      2    spin polarized calculation?
   LNONCOLLINEAR =      F non collinear calculations
   LSORBIT =      F    spin-orbit coupling
   INIWAV =      1    electr: 0-lowe 1-rand  2-diag
   LASPH  =      F    aspherical Exc in radial PAW
   METAGGA=      F    non-selfconsistent MetaGGA calc.

 Electronic Relaxation 1
   ENCUT  =  720.0 eV  52.92 Ry    7.27 a.u.  22.80 22.80 22.80*2*pi/ulx,y,z
   ENINI  =  720.0     initial cutoff
   ENAUG  =  946.2 eV  augmentation charge cutoff
   NELM   =    100;   NELMIN=  2; NELMDL= -5     # of ELM steps 
   EDIFF  = 0.1E-04   stopping-criterion for ELM
   LREAL  =      F    real-space projection
   NLSPLINE    = F    spline interpolate recip. space projectors
   LCOMPAT=      F    compatible to vasp.4.4
   GGA_COMPAT  = T    GGA compatible to vasp.4.4-vasp.4.6
   LMAXPAW     = -100 max onsite density
   LMAXMIX     =    4 max onsite mixed and CHGCAR
   VOSKOWN=      0    Vosko Wilk Nusair interpolation
   ROPT   =    0.00000   0.00000   0.00000   0.00000
 Ionic relaxation
   EDIFFG = 0.1E-03   stopping-criterion for IOM
   NSW    =      0    number of steps for IOM
   NBLOCK =      1;   KBLOCK =      1    inner block; outer block 
   IBRION =     -1    ionic relax: 0-MD 1-quasi-New 2-CG
   NFREE  =      0    steps in history (QN), initial steepest desc. (CG)
   ISIF   =      3    stress and relaxation
   IWAVPR =     10    prediction:  0-non 1-charg 2-wave 3-comb
   ISYM   =      2    0-nonsym 1-usesym 2-fastsym
   LCORR  =      T    Harris-Foulkes like correction to forces

   POTIM  = 0.5000    time-step for ionic-motion
   TEIN   =    0.0    initial temperature
   TEBEG  =    0.0;   TEEND  =   0.0 temperature during run
   SMASS  =  -3.00    Nose mass-parameter (am)
   estimated Nose-frequenzy (Omega)   =  0.10E-29 period in steps =****** mass=  -0.248E-26a.u.
   SCALEE = 1.0000    scale energy and forces
   NPACO  =    256;   APACO  = 16.0  distance and # of slots for P.C.
   PSTRESS=    0.0 pullay stress

  Mass of Ions in am
   POMASS = 132.90107.87 55.85 35.45
  Ionic Valenz
   ZVAL   =   9.00 11.00 16.00  7.00
  Atomic Wigner-Seitz radii
   RWIGS  =  -1.00 -1.00 -1.00 -1.00
  virtual crystal weights 
   VCA    =   1.00  1.00  1.00  1.00
   NELECT =     348.0000    total number of electrons
   NUPDOWN=      -1.0000    fix difference up-down

 DOS related values:
   EMIN   =  10.00;   EMAX   =-10.00  energy-range for DOS
   EFERMI =   0.00
   ISMEAR =     0;   SIGMA  =   0.01  broadening in eV -4-tet -1-fermi 0-gaus

 Electronic relaxation 2 (details)
   IALGO  =     38    algorithm
   LDIAG  =      T    sub-space diagonalisation (order eigenvalues)
   LSUBROT=      F    optimize rotation matrix (better conditioning)
   TURBO    =      0    0=normal 1=particle mesh
   IRESTART =      0    0=no restart 2=restart with 2 vectors
   NREBOOT  =      0    no. of reboots
   NMIN     =      0    reboot dimension
   EREF     =   0.00    reference energy to select bands
   IMIX   =      4    mixing-type and parameters
     AMIX     =   0.40;   BMIX     =  1.00
     AMIX_MAG =   1.60;   BMIX_MAG =  1.00
     AMIN     =   0.10
     WC   =   100.;   INIMIX=   1;  MIXPRE=   1;  MAXMIX= -45

 Intra band minimization:
   WEIMIN = 0.0000     energy-eigenvalue tresh-hold
   EBREAK =  0.11E-07  absolut break condition
   DEPER  =   0.30     relativ break condition  

   TIME   =   0.40     timestep for ELM

  volume/ion in A,a.u.               =      28.28       190.82
  Fermi-wavevector in a.u.,A,eV,Ry     =   1.105202  2.088529 16.619127  1.221471
  Thomas-Fermi vector in A             =   2.241686
 
 Write flags
   LWAVE        =      T    write WAVECAR
   LDOWNSAMPLE  =      F    k-point downsampling of WAVECAR
   LCHARG       =      T    write CHGCAR
   LVTOT        =      F    write LOCPOT, total local potential
   LVHAR        =      F    write LOCPOT, Hartree potential only
   LELF         =      F    write electronic localiz. function (ELF)
   LORBIT       =     11    0 simple, 1 ext, 2 COOP (PROOUT), +10 PAW based schemes


 Dipole corrections
   LMONO  =      F    monopole corrections only (constant potential shift)
   LDIPOL =      F    correct potential (dipole corrections)
   IDIPOL =      0    1-x, 2-y, 3-z, 4-all directions 
   EPSILON=  1.0000000 bulk dielectric constant

 LDA+U is selected, type is set to LDAUTYPE =  2
   angular momentum for each species LDAUL =    -1   -1    2   -1
   U (eV)           for each species LDAUU =   0.0  0.0  5.0  0.0
   J (eV)           for each species LDAUJ =   0.0  0.0  0.0  0.0
 Exchange correlation treatment:
   GGA     =    PE    GGA type
   LEXCH   =     8    internal setting for exchange type
   VOSKOWN=      0    Vosko Wilk Nusair interpolation
   LHFCALC =     F    Hartree Fock is set to
   LHFONE  =     F    Hartree Fock one center treatment
   AEXX    =    0.0000 exact exchange contribution

 Linear response parameters
   LEPSILON=     F    determine dielectric tensor
   LRPA    =     F    only Hartree local field effects (RPA)
   LNABLA  =     F    use nabla operator in PAW spheres
   LVEL    =     F    velocity operator in full k-point grid
   LINTERFAST=   F  fast interpolation
   KINTER  =     0    interpolate to denser k-point grid
   CSHIFT  =0.1000    complex shift for real part using Kramers Kronig
   OMEGAMAX=  -1.0    maximum frequency
   DEG_THRESHOLD= 0.2000000E-02 threshold for treating states as degnerate
   RTIME   =   -0.100 relaxation time in fs
  (WPLASMAI=    0.000 imaginary part of plasma frequency in eV, 0.658/RTIME)
   DFIELD  = 0.0000000 0.0000000 0.0000000 field for delta impulse in time
 
 Orbital magnetization related:
   ORBITALMAG=     F  switch on orbital magnetization
   LCHIMAG   =     F  perturbation theory with respect to B field
   DQ        =  0.001000  dq finite difference perturbation B field
   LLRAUG    =     F  two centre corrections for induced B field



--------------------------------------------------------------------------------------------------------


 Static calculation
 charge density and potential will be updated during run
 spin polarized calculation
 Variant of blocked Davidson
 Davidson routine will perform the subspace rotation
 perform sub-space diagonalisation
    after iterative eigenvector-optimisation
 modified Broyden-mixing scheme, WC =      100.0
 initial mixing is a Kerker type mixing with AMIX =  0.4000 and BMIX =      1.0000
 Hartree-type preconditioning will be used
 using additional bands           50
 reciprocal scheme for non local part
 use partial core corrections
 calculate Harris-corrections to forces 
   (improved forces if not selfconsistent)
 use gradient corrections 
 use of overlap-Matrix (Vanderbilt PP)
 Gauss-broadening in eV      SIGMA  =   0.01


--------------------------------------------------------------------------------------------------------


  energy-cutoff  :      720.00
  volume of cell :     1131.04
      direct lattice vectors                 reciprocal lattice vectors
    10.419005474  0.000000000  0.000000000     0.095978450  0.000000000  0.000000000
     0.000000000 10.419005474  0.000000000     0.000000000  0.095978450  0.000000000
     0.000000000  0.000000000 10.419005474     0.000000000  0.000000000  0.095978450

  length of vectors
    10.419005474 10.419005474 10.419005474     0.095978450  0.095978450  0.095978450


 
 k-points in units of 2pi/SCALE and weight: cs2agfecl6_band                         
   0.04798923  0.00000000  0.00000000       0.013
   0.04798923  0.00252575  0.00252575       0.013
   0.04798923  0.00505150  0.00505150       0.013
   0.04798923  0.00757725  0.00757725       0.013
   0.04798923  0.01010299  0.01010299       0.013
   0.04798923  0.01262874  0.01262874       0.013
   0.04798923  0.01515449  0.01515449       0.013
   0.04798923  0.01768024  0.01768024       0.013
   0.04798923  0.02020599  0.02020599       0.013
   0.04798923  0.02273174  0.02273174       0.013
   0.04798923  0.02525749  0.02525749       0.013
   0.04798923  0.02778324  0.02778324       0.013
   0.04798923  0.03030898  0.03030898       0.013
   0.04798923  0.03283473  0.03283473       0.013
   0.04798923  0.03536048  0.03536048       0.013
   0.04798923  0.03788623  0.03788623       0.013
   0.04798923  0.04041198  0.04041198       0.013
   0.04798923  0.04293773  0.04293773       0.013
   0.04798923  0.04546348  0.04546348       0.013
   0.04798923  0.04798923  0.04798923       0.013
   0.04798923  0.04798923  0.04798923       0.013
   0.04798923  0.04798923  0.04546348       0.013
   0.04798923  0.04798923  0.04293773       0.013
   0.04798923  0.04798923  0.04041198       0.013
   0.04798923  0.04798923  0.03788623       0.013
   0.04798923  0.04798923  0.03536048       0.013
   0.04798923  0.04798923  0.03283473       0.013
   0.04798923  0.04798923  0.03030898       0.013
   0.04798923  0.04798923  0.02778324       0.013
   0.04798923  0.04798923  0.02525749       0.013
   0.04798923  0.04798923  0.02273174       0.013
   0.04798923  0.04798923  0.02020599       0.013
   0.04798923  0.04798923  0.01768024       0.013
   0.04798923  0.04798923  0.01515449       0.013
   0.04798923  0.04798923  0.01262874       0.013
   0.04798923  0.04798923  0.01010299       0.013
   0.04798923  0.04798923  0.00757725       0.013
   0.04798923  0.04798923  0.00505150       0.013
   0.04798923  0.04798923  0.00252575       0.013
   0.04798923  0.04798923  0.00000000       0.013
   0.04798923  0.04798923  0.00000000       0.013
   0.04546348  0.04546348  0.00000000       0.013
   0.04293773  0.04293773  0.00000000       0.013
   0.04041198  0.04041198  0.00000000       0.013
   0.03788623  0.03788623  0.00000000       0.013
   0.03536048  0.03536048  0.00000000       0.013
   0.03283473  0.03283473  0.00000000       0.013
   0.03030898  0.03030898  0.00000000       0.013
   0.02778324  0.02778324  0.00000000       0.013
   0.02525749  0.02525749  0.00000000       0.013
   0.02273174  0.02273174  0.00000000       0.013
   0.02020599  0.02020599  0.00000000       0.013
   0.01768024  0.01768024  0.00000000       0.013
   0.01515449  0.01515449  0.00000000       0.013
   0.01262874  0.01262874  0.00000000       0.013
   0.01010299  0.01010299  0.00000000       0.013
   0.00757725  0.00757725  0.00000000       0.013
   0.00505150  0.00505150  0.00000000       0.013
   0.00252575  0.00252575  0.00000000       0.013
   0.00000000  0.00000000  0.00000000       0.013
   0.00000000  0.00000000  0.00000000       0.013
   0.00252575  0.00252575  0.00252575       0.013
   0.00505150  0.00505150  0.00505150       0.013
   0.00757725  0.00757725  0.00757725       0.013
   0.01010299  0.01010299  0.01010299       0.013
   0.01262874  0.01262874  0.01262874       0.013
   0.01515449  0.01515449  0.01515449       0.013
   0.01768024  0.01768024  0.01768024       0.013
   0.02020599  0.02020599  0.02020599       0.013
   0.02273174  0.02273174  0.02273174       0.013
   0.02525749  0.02525749  0.02525749       0.013
   0.02778324  0.02778324  0.02778324       0.013
   0.03030898  0.03030898  0.03030898       0.013
   0.03283473  0.03283473  0.03283473       0.013
   0.03536048  0.03536048  0.03536048       0.013
   0.03788623  0.03788623  0.03788623       0.013
   0.04041198  0.04041198  0.04041198       0.013
   0.04293773  0.04293773  0.04293773       0.013
   0.04546348  0.04546348  0.04546348       0.013
   0.04798923  0.04798923  0.04798923       0.013
 
 k-points in reciprocal lattice and weights: cs2agfecl6_band                         
   0.50000000  0.00000000  0.00000000       0.013
   0.50000000  0.02631579  0.02631579       0.013
   0.50000000  0.05263158  0.05263158       0.013
   0.50000000  0.07894737  0.07894737       0.013
   0.50000000  0.10526316  0.10526316       0.013
   0.50000000  0.13157895  0.13157895       0.013
   0.50000000  0.15789474  0.15789474       0.013
   0.50000000  0.18421053  0.18421053       0.013
   0.50000000  0.21052632  0.21052632       0.013
   0.50000000  0.23684211  0.23684211       0.013
   0.50000000  0.26315789  0.26315789       0.013
   0.50000000  0.28947368  0.28947368       0.013
   0.50000000  0.31578947  0.31578947       0.013
   0.50000000  0.34210526  0.34210526       0.013
   0.50000000  0.36842105  0.36842105       0.013
   0.50000000  0.39473684  0.39473684       0.013
   0.50000000  0.42105263  0.42105263       0.013
   0.50000000  0.44736842  0.44736842       0.013
   0.50000000  0.47368421  0.47368421       0.013
   0.50000000  0.50000000  0.50000000       0.013
   0.50000000  0.50000000  0.50000000       0.013
   0.50000000  0.50000000  0.47368421       0.013
   0.50000000  0.50000000  0.44736842       0.013
   0.50000000  0.50000000  0.42105263       0.013
   0.50000000  0.50000000  0.39473684       0.013
   0.50000000  0.50000000  0.36842105       0.013
   0.50000000  0.50000000  0.34210526       0.013
   0.50000000  0.50000000  0.31578947       0.013
   0.50000000  0.50000000  0.28947368       0.013
   0.50000000  0.50000000  0.26315789       0.013
   0.50000000  0.50000000  0.23684211       0.013
   0.50000000  0.50000000  0.21052632       0.013
   0.50000000  0.50000000  0.18421053       0.013
   0.50000000  0.50000000  0.15789474       0.013
   0.50000000  0.50000000  0.13157895       0.013
   0.50000000  0.50000000  0.10526316       0.013
   0.50000000  0.50000000  0.07894737       0.013
   0.50000000  0.50000000  0.05263158       0.013
   0.50000000  0.50000000  0.02631579       0.013
   0.50000000  0.50000000  0.00000000       0.013
   0.50000000  0.50000000  0.00000000       0.013
   0.47368421  0.47368421  0.00000000       0.013
   0.44736842  0.44736842  0.00000000       0.013
   0.42105263  0.42105263  0.00000000       0.013
   0.39473684  0.39473684  0.00000000       0.013
   0.36842105  0.36842105  0.00000000       0.013
   0.34210526  0.34210526  0.00000000       0.013
   0.31578947  0.31578947  0.00000000       0.013
   0.28947368  0.28947368  0.00000000       0.013
   0.26315789  0.26315789  0.00000000       0.013
   0.23684211  0.23684211  0.00000000       0.013
   0.21052632  0.21052632  0.00000000       0.013
   0.18421053  0.18421053  0.00000000       0.013
   0.15789474  0.15789474  0.00000000       0.013
   0.13157895  0.13157895  0.00000000       0.013
   0.10526316  0.10526316  0.00000000       0.013
   0.07894737  0.07894737  0.00000000       0.013
   0.05263158  0.05263158  0.00000000       0.013
   0.02631579  0.02631579  0.00000000       0.013
   0.00000000  0.00000000  0.00000000       0.013
   0.00000000  0.00000000  0.00000000       0.013
   0.02631579  0.02631579  0.02631579       0.013
   0.05263158  0.05263158  0.05263158       0.013
   0.07894737  0.07894737  0.07894737       0.013
   0.10526316  0.10526316  0.10526316       0.013
   0.13157895  0.13157895  0.13157895       0.013
   0.15789474  0.15789474  0.15789474       0.013
   0.18421053  0.18421053  0.18421053       0.013
   0.21052632  0.21052632  0.21052632       0.013
   0.23684211  0.23684211  0.23684211       0.013
   0.26315789  0.26315789  0.26315789       0.013
   0.28947368  0.28947368  0.28947368       0.013
   0.31578947  0.31578947  0.31578947       0.013
   0.34210526  0.34210526  0.34210526       0.013
   0.36842105  0.36842105  0.36842105       0.013
   0.39473684  0.39473684  0.39473684       0.013
   0.42105263  0.42105263  0.42105263       0.013
   0.44736842  0.44736842  0.44736842       0.013
   0.47368421  0.47368421  0.47368421       0.013
   0.50000000  0.50000000  0.50000000       0.013
 
 position of ions in fractional coordinates (direct lattice) 
   0.25000000  0.75000002  0.75000002
   0.75000002  0.25000000  0.25000000
   0.75000002  0.25000000  0.75000002
   0.25000000  0.75000002  0.25000000
   0.75000002  0.75000002  0.25000000
   0.25000000  0.25000000  0.75000002
   0.25000000  0.25000000  0.25000000
   0.75000002  0.75000002  0.75000002
   0.50000000  0.00000000  0.50000000
   0.50000000  0.50000000  0.00000000
   0.00000000  0.50000000  0.50000000
   0.00000000  0.00000000  0.00000000
   0.50000000  0.50000000  0.50000000
   0.50000000  0.00000000  0.00000000
   0.00000000  0.50000000  0.00000000
   0.00000000  0.00000000  0.50000000
   0.50000000  0.73350920  0.50000000
   0.50000000  0.26649080  0.50000000
   0.50000000  0.50000000  0.73350920
   0.50000000  0.50000000  0.26649080
   0.73350920  0.50000000  0.50000000
   0.26649080  0.50000000  0.50000000
   0.50000000  0.23350924  0.00000000
   0.50000000  0.76649080  0.00000000
   0.50000000  0.00000000  0.23350924
   0.50000000  0.00000000  0.76649080
   0.73350920  0.00000000  0.00000000
   0.26649080  0.00000000  0.00000000
   0.00000000  0.73350920  0.00000000
   0.00000000  0.26649080  0.00000000
   0.00000000  0.50000000  0.23350924
   0.00000000  0.50000000  0.76649080
   0.23350924  0.50000000  0.00000000
   0.76649080  0.50000000  0.00000000
   0.00000000  0.23350924  0.50000000
   0.00000000  0.76649080  0.50000000
   0.00000000  0.00000000  0.73350920
   0.00000000  0.00000000  0.26649080
   0.23350924  0.00000000  0.50000000
   0.76649080  0.00000000  0.50000000
 
 position of ions in cartesian coordinates  (Angst):
   2.60475137  7.81425434  7.81425434
   7.81425434  2.60475137  2.60475137
   7.81425434  2.60475137  7.81425434
   2.60475137  7.81425434  2.60475137
   7.81425434  7.81425434  2.60475137
   2.60475137  2.60475137  7.81425434
   2.60475137  2.60475137  2.60475137
   7.81425434  7.81425434  7.81425434
   5.20950274  0.00000000  5.20950274
   5.20950274  5.20950274  0.00000000
   0.00000000  5.20950274  5.20950274
   0.00000000  0.00000000  0.00000000
   5.20950274  5.20950274  5.20950274
   5.20950274  0.00000000  0.00000000
   0.00000000  5.20950274  0.00000000
   0.00000000  0.00000000  5.20950274
   5.20950274  7.64243632  5.20950274
   5.20950274  2.77656915  5.20950274
   5.20950274  5.20950274  7.64243632
   5.20950274  5.20950274  2.77656915
   7.64243632  5.20950274  5.20950274
   2.77656915  5.20950274  5.20950274
   5.20950274  2.43293406  0.00000000
   5.20950274  7.98607189  0.00000000
   5.20950274  0.00000000  2.43293406
   5.20950274  0.00000000  7.98607189
   7.64243632  0.00000000  0.00000000
   2.77656915  0.00000000  0.00000000
   0.00000000  7.64243632  0.00000000
   0.00000000  2.77656915  0.00000000
   0.00000000  5.20950274  2.43293406
   0.00000000  5.20950274  7.98607189
   2.43293406  5.20950274  0.00000000
   7.98607189  5.20950274  0.00000000
   0.00000000  2.43293406  5.20950274
   0.00000000  7.98607189  5.20950274
   0.00000000  0.00000000  7.64243632
   0.00000000  0.00000000  2.77656915
   2.43293406  0.00000000  5.20950274
   7.98607189  0.00000000  5.20950274
 


--------------------------------------------------------------------------------------------------------


 k-point  1 :   0.5000 0.0000 0.0000  plane waves:   49518
 k-point  2 :   0.5000 0.0263 0.0263  plane waves:   49574
 k-point  3 :   0.5000 0.0526 0.0526  plane waves:   49594
 k-point  4 :   0.5000 0.0789 0.0789  plane waves:   49644
 k-point  5 :   0.5000 0.1053 0.1053  plane waves:   49620
 k-point  6 :   0.5000 0.1316 0.1316  plane waves:   49616
 k-point  7 :   0.5000 0.1579 0.1579  plane waves:   49572
 k-point  8 :   0.5000 0.1842 0.1842  plane waves:   49582
 k-point  9 :   0.5000 0.2105 0.2105  plane waves:   49612
 k-point 10 :   0.5000 0.2368 0.2368  plane waves:   49614
 k-point 11 :   0.5000 0.2632 0.2632  plane waves:   49602
 k-point 12 :   0.5000 0.2895 0.2895  plane waves:   49598
 k-point 13 :   0.5000 0.3158 0.3158  plane waves:   49604
 k-point 14 :   0.5000 0.3421 0.3421  plane waves:   49594
 k-point 15 :   0.5000 0.3684 0.3684  plane waves:   49630
 k-point 16 :   0.5000 0.3947 0.3947  plane waves:   49638
 k-point 17 :   0.5000 0.4211 0.4211  plane waves:   49610
 k-point 18 :   0.5000 0.4474 0.4474  plane waves:   49608
 k-point 19 :   0.5000 0.4737 0.4737  plane waves:   49642
 k-point 20 :   0.5000 0.5000 0.5000  plane waves:   49736
 k-point 21 :   0.5000 0.5000 0.5000  plane waves:   49736
 k-point 22 :   0.5000 0.5000 0.4737  plane waves:   49684
 k-point 23 :   0.5000 0.5000 0.4474  plane waves:   49624
 k-point 24 :   0.5000 0.5000 0.4211  plane waves:   49604
 k-point 25 :   0.5000 0.5000 0.3947  plane waves:   49608
 k-point 26 :   0.5000 0.5000 0.3684  plane waves:   49628
 k-point 27 :   0.5000 0.5000 0.3421  plane waves:   49632
 k-point 28 :   0.5000 0.5000 0.3158  plane waves:   49632
 k-point 29 :   0.5000 0.5000 0.2895  plane waves:   49640
 k-point 30 :   0.5000 0.5000 0.2632  plane waves:   49600
 k-point 31 :   0.5000 0.5000 0.2368  plane waves:   49616
 k-point 32 :   0.5000 0.5000 0.2105  plane waves:   49612
 k-point 33 :   0.5000 0.5000 0.1842  plane waves:   49628
 k-point 34 :   0.5000 0.5000 0.1579  plane waves:   49664
 k-point 35 :   0.5000 0.5000 0.1316  plane waves:   49628
 k-point 36 :   0.5000 0.5000 0.1053  plane waves:   49656
 k-point 37 :   0.5000 0.5000 0.0789  plane waves:   49648
 k-point 38 :   0.5000 0.5000 0.0526  plane waves:   49712
 k-point 39 :   0.5000 0.5000 0.0263  plane waves:   49712
 k-point 40 :   0.5000 0.5000 0.0000  plane waves:   49760
 k-point 41 :   0.5000 0.5000 0.0000  plane waves:   49760
 k-point 42 :   0.4737 0.4737 0.0000  plane waves:   49684
 k-point 43 :   0.4474 0.4474 0.0000  plane waves:   49648
 k-point 44 :   0.4211 0.4211 0.0000  plane waves:   49670
 k-point 45 :   0.3947 0.3947 0.0000  plane waves:   49638
 k-point 46 :   0.3684 0.3684 0.0000  plane waves:   49668
 k-point 47 :   0.3421 0.3421 0.0000  plane waves:   49660
 k-point 48 :   0.3158 0.3158 0.0000  plane waves:   49642
 k-point 49 :   0.2895 0.2895 0.0000  plane waves:   49610
 k-point 50 :   0.2632 0.2632 0.0000  plane waves:   49604
 k-point 51 :   0.2368 0.2368 0.0000  plane waves:   49600
 k-point 52 :   0.2105 0.2105 0.0000  plane waves:   49620
 k-point 53 :   0.1842 0.1842 0.0000  plane waves:   49626
 k-point 54 :   0.1579 0.1579 0.0000  plane waves:   49620
 k-point 55 :   0.1316 0.1316 0.0000  plane waves:   49586
 k-point 56 :   0.1053 0.1053 0.0000  plane waves:   49601
 k-point 57 :   0.0789 0.0789 0.0000  plane waves:   49599
 k-point 58 :   0.0526 0.0526 0.0000  plane waves:   49583
 k-point 59 :   0.0263 0.0263 0.0000  plane waves:   49559
 k-point 60 :   0.0000 0.0000 0.0000  plane waves:   49509
 k-point 61 :   0.0000 0.0000 0.0000  plane waves:   49509
 k-point 62 :   0.0263 0.0263 0.0263  plane waves:   49581
 k-point 63 :   0.0526 0.0526 0.0526  plane waves:   49602
 k-point 64 :   0.0789 0.0789 0.0789  plane waves:   49617
 k-point 65 :   0.1053 0.1053 0.1053  plane waves:   49611
 k-point 66 :   0.1316 0.1316 0.1316  plane waves:   49635
 k-point 67 :   0.1579 0.1579 0.1579  plane waves:   49668
 k-point 68 :   0.1842 0.1842 0.1842  plane waves:   49640
 k-point 69 :   0.2105 0.2105 0.2105  plane waves:   49631
 k-point 70 :   0.2368 0.2368 0.2368  plane waves:   49649
 k-point 71 :   0.2632 0.2632 0.2632  plane waves:   49652
 k-point 72 :   0.2895 0.2895 0.2895  plane waves:   49631
 k-point 73 :   0.3158 0.3158 0.3158  plane waves:   49628
 k-point 74 :   0.3421 0.3421 0.3421  plane waves:   49610
 k-point 75 :   0.3684 0.3684 0.3684  plane waves:   49631
 k-point 76 :   0.3947 0.3947 0.3947  plane waves:   49661
 k-point 77 :   0.4211 0.4211 0.4211  plane waves:   49634
 k-point 78 :   0.4474 0.4474 0.4474  plane waves:   49622
 k-point 79 :   0.4737 0.4737 0.4737  plane waves:   49625
 k-point 80 :   0.5000 0.5000 0.5000  plane waves:   49736

 maximum and minimum number of plane-waves per node :     49760    49509

 maximum number of plane-waves:     49760
 maximum index in each direction: 
   IXMAX=   22   IYMAX=   22   IZMAX=   22
   IXMIN=  -23   IYMIN=  -23   IZMIN=  -23


 serial   3D FFT for wavefunctions
 parallel 3D FFT for charge:
    minimum data exchange during FFTs selected (reduces bandwidth)


 total amount of memory used by VASP MPI-rank0  3494312. kBytes
=======================================================================

   base      :      30000. kBytes
   nonl-proj :    2325908. kBytes
   fftplans  :      12348. kBytes
   grid      :      96061. kBytes
   one-center:       1244. kBytes
   wavefun   :    1028751. kBytes
 
     INWAV:  cpu time    0.0000: real time    0.0002
 Broyden mixing: mesh for mixing (old mesh)
   NGX = 45   NGY = 45   NGZ = 45
  (NGX  =192   NGY  =192   NGZ  =192)
  gives a total of  91125 points

 initial charge density was supplied:
 charge density of overlapping atoms calculated
 number of electron     348.0000000 magnetization      28.0000000
 keeping initial charge density in first step


--------------------------------------------------------------------------------------------------------


 Maximum index for augmentation-charges         1438 (set IRDMAX)


--------------------------------------------------------------------------------------------------------


 First call to EWALD:  gamma=   0.170
 Maximum number of real-space cells 3x 3x 3
 Maximum number of reciprocal cells 3x 3x 3

    FEWALD:  cpu time    0.0024: real time    0.0051


--------------------------------------- Iteration      1(   1)  ---------------------------------------


    POTLOK:  cpu time    0.5059: real time    0.5173
    SETDIJ:  cpu time    0.0230: real time    0.0271
     EDDAV:  cpu time 1183.4678: real time 1191.6555
       DOS:  cpu time    0.0070: real time    0.0112
    --------------------------------------------
      LOOP:  cpu time 1184.0036: real time 1192.2111

 eigenvalue-minimisations  : 78540
 total energy-change (2. order) : 0.3547254E+04  (-0.1979700E+05)
 number of electron     348.0000000 magnetization      28.0000000
 augmentation part      348.0000000 magnetization      28.0000000

 Free energy of the ion-electron system (eV)
  ---------------------------------------------------
  alpha Z        PSCENC =       967.75677095
  Ewald energy   TEWEN  =    -19639.66209906
  -Hartree energ DENC   =    -11542.99615836
  -exchange      EXHF   =         0.00000000
  -V(xc)+E(xc)   XCENC  =       978.70061810
  PAW double counting   =     20303.43500004   -19931.18810676
  entropy T*S    EENTRO =        -0.00085891
  eigenvalues    EBANDS =       472.05474562
  atomic energy  EATOM  =     31939.15428920
  Solvation  Ediel_sol  =         0.00000000
  ---------------------------------------------------
  free energy    TOTEN  =      3547.25420082 eV

  energy without entropy =     3547.25505972  energy(sigma->0) =     3547.25463027


--------------------------------------------------------------------------------------------------------




--------------------------------------- Iteration      1(   2)  ---------------------------------------


     EDDAV:  cpu time 1204.8460: real time 1213.3725
       DOS:  cpu time    0.0051: real time    0.0051
    --------------------------------------------
      LOOP:  cpu time 1204.8511: real time 1213.3776

 eigenvalue-minimisations  : 80500
 total energy-change (2. order) :-0.3197068E+04  (-0.2998695E+04)
 number of electron     348.0000000 magnetization      28.0000000
 augmentation part      348.0000000 magnetization      28.0000000

 Free energy of the ion-electron system (eV)
  ---------------------------------------------------
  alpha Z        PSCENC =       967.75677095
  Ewald energy   TEWEN  =    -19639.66209906
  -Hartree energ DENC   =    -11542.99615836
  -exchange      EXHF   =         0.00000000
  -V(xc)+E(xc)   XCENC  =       978.70061810
  PAW double counting   =     20303.43500004   -19931.18810676
  entropy T*S    EENTRO =        -0.00045700
  eigenvalues    EBANDS =     -2725.01413314
  atomic energy  EATOM  =     31939.15428920
  Solvation  Ediel_sol  =         0.00000000
  ---------------------------------------------------
  free energy    TOTEN  =       350.18572397 eV

  energy without entropy =      350.18618097  energy(sigma->0) =      350.18595247


--------------------------------------------------------------------------------------------------------




--------------------------------------- Iteration      1(   3)  ---------------------------------------


     EDDAV:  cpu time 1457.0948: real time 1467.1648
       DOS:  cpu time    0.0028: real time    0.0028
    --------------------------------------------
      LOOP:  cpu time 1457.0976: real time 1467.1675

 eigenvalue-minimisations  :101612
 total energy-change (2. order) :-0.4778205E+03  (-0.4698529E+03)
 number of electron     348.0000000 magnetization      28.0000000
 augmentation part      348.0000000 magnetization      28.0000000

 Free energy of the ion-electron system (eV)
  ---------------------------------------------------
  alpha Z        PSCENC =       967.75677095
  Ewald energy   TEWEN  =    -19639.66209906
  -Hartree energ DENC   =    -11542.99615836
  -exchange      EXHF   =         0.00000000
  -V(xc)+E(xc)   XCENC  =       978.70061810
  PAW double counting   =     20303.43500004   -19931.18810676
  entropy T*S    EENTRO =        -0.00000000
  eigenvalues    EBANDS =     -3202.83509237
  atomic energy  EATOM  =     31939.15428920
  Solvation  Ediel_sol  =         0.00000000
  ---------------------------------------------------
  free energy    TOTEN  =      -127.63477826 eV

  energy without entropy =     -127.63477826  energy(sigma->0) =     -127.63477826


--------------------------------------------------------------------------------------------------------




--------------------------------------- Iteration      1(   4)  ---------------------------------------


     EDDAV:  cpu time 1547.2433: real time 1557.3570
       DOS:  cpu time    0.0028: real time    0.0028
    --------------------------------------------
      LOOP:  cpu time 1547.2461: real time 1557.3598

 eigenvalue-minimisations  :109340
 total energy-change (2. order) :-0.2287564E+02  (-0.2277365E+02)
 number of electron     348.0000000 magnetization      28.0000000
 augmentation part      348.0000000 magnetization      28.0000000

 Free energy of the ion-electron system (eV)
  ---------------------------------------------------
  alpha Z        PSCENC =       967.75677095
  Ewald energy   TEWEN  =    -19639.66209906
  -Hartree energ DENC   =    -11542.99615836
  -exchange      EXHF   =         0.00000000
  -V(xc)+E(xc)   XCENC  =       978.70061810
  PAW double counting   =     20303.43500004   -19931.18810676
  entropy T*S    EENTRO =        -0.00000000
  eigenvalues    EBANDS =     -3225.71072778
  atomic energy  EATOM  =     31939.15428920
  Solvation  Ediel_sol  =         0.00000000
  ---------------------------------------------------
  free energy    TOTEN  =      -150.51041368 eV

  energy without entropy =     -150.51041368  energy(sigma->0) =     -150.51041368


--------------------------------------------------------------------------------------------------------




--------------------------------------- Iteration      1(   5)  ---------------------------------------


     EDDAV:  cpu time 1727.8319: real time 1739.5287
       DOS:  cpu time    0.0027: real time    0.0027
    CHARGE:  cpu time   34.8488: real time   35.0524
    MIXING:  cpu time    0.0135: real time    0.0177
    --------------------------------------------
      LOOP:  cpu time 1762.6970: real time 1774.6016

 eigenvalue-minimisations  :124712
 total energy-change (2. order) :-0.1336526E+01  (-0.1334984E+01)
 number of electron     347.9999898 magnetization      24.5864354
 augmentation part        1.7520936 magnetization      12.7221188

 Broyden mixing:
  rms(total) = 0.46244E+01    rms(broyden)= 0.46241E+01
  rms(prec ) = 0.53212E+01
  weight for this iteration     100.00

 Free energy of the ion-electron system (eV)
  ---------------------------------------------------
  alpha Z        PSCENC =       967.75677095
  Ewald energy   TEWEN  =    -19639.66209906
  -Hartree energ DENC   =    -11542.99615836
  -exchange      EXHF   =         0.00000000
  -V(xc)+E(xc)   XCENC  =       978.70061810
  PAW double counting   =     20303.43500004   -19931.18810676
  entropy T*S    EENTRO =        -0.00000000
  eigenvalues    EBANDS =     -3227.04725416
  atomic energy  EATOM  =     31939.15428920
  Solvation  Ediel_sol  =         0.00000000
  ---------------------------------------------------
  free energy    TOTEN  =      -151.84694005 eV

  energy without entropy =     -151.84694005  energy(sigma->0) =     -151.84694005


--------------------------------------------------------------------------------------------------------




--------------------------------------- Iteration      1(   6)  ---------------------------------------


    POTLOK:  cpu time    0.4769: real time    0.4805
    SETDIJ:  cpu time    0.0476: real time    0.0475
     EDDAV:  cpu time 1712.8110: real time 1723.8282
       DOS:  cpu time    0.0027: real time    0.0027
    CHARGE:  cpu time   34.7877: real time   34.9921
    MIXING:  cpu time    0.0129: real time    0.0142
    --------------------------------------------
      LOOP:  cpu time 1748.1388: real time 1759.3653

 eigenvalue-minimisations  :123284
 total energy-change (2. order) : 0.2294341E+02  (-0.1038060E+02)
 number of electron     347.9999886 magnetization      23.1431690
 augmentation part        4.2463298 magnetization      10.9449251

 Broyden mixing:
  rms(total) = 0.21226E+01    rms(broyden)= 0.21217E+01
  rms(prec ) = 0.22374E+01
  weight for this iteration     100.00

 eigenvalues of (default mixing * dielectric matrix)
  average eigenvalue GAMMA=   0.6952
  0.6952

 Free energy of the ion-electron system (eV)
  ---------------------------------------------------
  alpha Z        PSCENC =       967.75677095
  Ewald energy   TEWEN  =    -19639.66209906
  -Hartree energ DENC   =    -11171.85735469
  -exchange      EXHF   =         0.00000000
  -V(xc)+E(xc)   XCENC  =       964.84445176
  PAW double counting   =     19952.66700960   -19578.54215249
  entropy T*S    EENTRO =        -0.00000000
  eigenvalues    EBANDS =     -3563.26444717
  atomic energy  EATOM  =     31939.15428920
  Solvation  Ediel_sol  =         0.00000000
  ---------------------------------------------------
  free energy    TOTEN  =      -128.90353190 eV

  energy without entropy =     -128.90353190  energy(sigma->0) =     -128.90353190


--------------------------------------------------------------------------------------------------------




--------------------------------------- Iteration      1(   7)  ---------------------------------------


    POTLOK:  cpu time    0.4768: real time    0.4812
    SETDIJ:  cpu time    0.0227: real time    0.0227
     EDDAV:  cpu time 1407.2041: real time 1433.4369
       DOS:  cpu time    0.0028: real time    0.0028
    CHARGE:  cpu time   34.7524: real time   34.9929
    MIXING:  cpu time    0.0094: real time    0.0120
    --------------------------------------------
      LOOP:  cpu time 1442.4682: real time 1468.9485

 eigenvalue-minimisations  : 98896
 total energy-change (2. order) :-0.4656143E+01  (-0.1901960E+01)
 number of electron     347.9999886 magnetization      22.1060134
 augmentation part        4.3158506 magnetization      10.1104602

 Broyden mixing:
  rms(total) = 0.81289E+00    rms(broyden)= 0.81240E+00
  rms(prec ) = 0.92456E+00
  weight for this iteration     100.00

 eigenvalues of (default mixing * dielectric matrix)
  average eigenvalue GAMMA=   0.7620
  0.7620  0.7620

 Free energy of the ion-electron system (eV)
  ---------------------------------------------------
  alpha Z        PSCENC =       967.75677095
  Ewald energy   TEWEN  =    -19639.66209906
  -Hartree energ DENC   =    -11224.71720837
  -exchange      EXHF   =         0.00000000
  -V(xc)+E(xc)   XCENC  =       967.88861618
  PAW double counting   =     20066.07964664   -19705.31593390
  entropy T*S    EENTRO =        -0.00000000
  eigenvalues    EBANDS =     -3504.74375641
  atomic energy  EATOM  =     31939.15428920
  Solvation  Ediel_sol  =         0.00000000
  ---------------------------------------------------
  free energy    TOTEN  =      -133.55967477 eV

  energy without entropy =     -133.55967477  energy(sigma->0) =     -133.55967477


--------------------------------------------------------------------------------------------------------




--------------------------------------- Iteration      1(   8)  ---------------------------------------


    POTLOK:  cpu time    0.4782: real time    0.4789
    SETDIJ:  cpu time    0.0223: real time    0.0225
     EDDAV:  cpu time 1651.2539: real time 1661.9256
       DOS:  cpu time    0.0028: real time    0.0027
    CHARGE:  cpu time   34.7733: real time   34.9704
    MIXING:  cpu time    0.0117: real time    0.0117
    --------------------------------------------
      LOOP:  cpu time 1686.5422: real time 1697.4118

 eigenvalue-minimisations  :118188
 total energy-change (2. order) :-0.1428467E+00  (-0.2527925E+00)
 number of electron     347.9999889 magnetization      20.9359489
 augmentation part        3.8380650 magnetization       9.0936961

 Broyden mixing:
  rms(total) = 0.39383E+00    rms(broyden)= 0.39373E+00
  rms(prec ) = 0.49040E+00
  weight for this iteration     100.00

 eigenvalues of (default mixing * dielectric matrix)
  average eigenvalue GAMMA=   0.8381
  0.9348  0.9348  0.6447

 Free energy of the ion-electron system (eV)
  ---------------------------------------------------
  alpha Z        PSCENC =       967.75677095
  Ewald energy   TEWEN  =    -19639.66209906
  -Hartree energ DENC   =    -11262.07854600
  -exchange      EXHF   =         0.00000000
  -V(xc)+E(xc)   XCENC  =       969.40862359
  PAW double counting   =     20153.82535560   -19787.84038359
  entropy T*S    EENTRO =        -0.00000000
  eigenvalues    EBANDS =     -3474.26653216
  atomic energy  EATOM  =     31939.15428920
  Solvation  Ediel_sol  =         0.00000000
  ---------------------------------------------------
  free energy    TOTEN  =      -133.70252149 eV

  energy without entropy =     -133.70252149  energy(sigma->0) =     -133.70252149


--------------------------------------------------------------------------------------------------------




--------------------------------------- Iteration      1(   9)  ---------------------------------------


    POTLOK:  cpu time    0.4869: real time    0.4881
    SETDIJ:  cpu time    0.0225: real time    0.0225
     EDDAV:  cpu time 1429.3522: real time 1438.9050
       DOS:  cpu time    0.0028: real time    0.0028
    CHARGE:  cpu time   34.7781: real time   34.9304
    MIXING:  cpu time    0.0122: real time    0.0122
    --------------------------------------------
      LOOP:  cpu time 1464.6545: real time 1474.3611

 eigenvalue-minimisations  : 99176
 total energy-change (2. order) : 0.9790023E-01  (-0.5469129E-01)
 number of electron     347.9999888 magnetization      20.1558217
 augmentation part        3.9198243 magnetization       8.2008485

 Broyden mixing:
  rms(total) = 0.21855E+00    rms(broyden)= 0.21853E+00
  rms(prec ) = 0.24465E+00
  weight for this iteration     100.00

 eigenvalues of (default mixing * dielectric matrix)
  average eigenvalue GAMMA=   0.9884
  1.8912  0.7831  0.7831  0.4960

 Free energy of the ion-electron system (eV)
  ---------------------------------------------------
  alpha Z        PSCENC =       967.75677095
  Ewald energy   TEWEN  =    -19639.66209906
  -Hartree energ DENC   =    -11241.01031954
  -exchange      EXHF   =         0.00000000
  -V(xc)+E(xc)   XCENC  =       970.40043262
  PAW double counting   =     20173.69509459   -19805.71211657
  entropy T*S    EENTRO =        -0.00000000
  eigenvalues    EBANDS =     -3498.22667344
  atomic energy  EATOM  =     31939.15428920
  Solvation  Ediel_sol  =         0.00000000
  ---------------------------------------------------
  free energy    TOTEN  =      -133.60462126 eV

  energy without entropy =     -133.60462126  energy(sigma->0) =     -133.60462126


--------------------------------------------------------------------------------------------------------




--------------------------------------- Iteration      1(  10)  ---------------------------------------


    POTLOK:  cpu time    0.4995: real time    0.5005
    SETDIJ:  cpu time    0.0238: real time    0.0238
     EDDAV:  cpu time 1555.7864: real time 1567.7355
       DOS:  cpu time    0.0028: real time    0.0028
    CHARGE:  cpu time   34.7535: real time   34.9856
    MIXING:  cpu time    0.0120: real time    0.0120
    --------------------------------------------
      LOOP:  cpu time 1591.0779: real time 1603.2602

 eigenvalue-minimisations  :110376
 total energy-change (2. order) :-0.9978500E-01  (-0.1960921E-01)
 number of electron     347.9999887 magnetization      20.1041594
 augmentation part        4.0455479 magnetization       8.0205783

 Broyden mixing:
  rms(total) = 0.22140E+00    rms(broyden)= 0.22103E+00
  rms(prec ) = 0.27858E+00
  weight for this iteration     100.00

 eigenvalues of (default mixing * dielectric matrix)
  average eigenvalue GAMMA=   1.0348
  2.0983  1.0500  0.7193  0.6533  0.6533

 Free energy of the ion-electron system (eV)
  ---------------------------------------------------
  alpha Z        PSCENC =       967.75677095
  Ewald energy   TEWEN  =    -19639.66209906
  -Hartree energ DENC   =    -11235.41436437
  -exchange      EXHF   =         0.00000000
  -V(xc)+E(xc)   XCENC  =       970.63201193
  PAW double counting   =     20200.82582946   -19833.27679738
  entropy T*S    EENTRO =        -0.00000000
  eigenvalues    EBANDS =     -3503.72004699
  atomic energy  EATOM  =     31939.15428920
  Solvation  Ediel_sol  =         0.00000000
  ---------------------------------------------------
  free energy    TOTEN  =      -133.70440626 eV

  energy without entropy =     -133.70440626  energy(sigma->0) =     -133.70440626


--------------------------------------------------------------------------------------------------------




--------------------------------------- Iteration      1(  11)  ---------------------------------------


    POTLOK:  cpu time    0.5019: real time    0.5037
    SETDIJ:  cpu time    0.0226: real time    0.0226
     EDDAV:  cpu time 1532.6438: real time 1545.2337
       DOS:  cpu time    0.0028: real time    0.0027
    CHARGE:  cpu time   34.8049: real time   34.9908
    MIXING:  cpu time    0.0121: real time    0.0125
    --------------------------------------------
      LOOP:  cpu time 1567.9880: real time 1580.7660

 eigenvalue-minimisations  :108500
 total energy-change (2. order) : 0.2820783E-01  (-0.1319444E-01)
 number of electron     347.9999888 magnetization      20.0395822
 augmentation part        3.8983458 magnetization       8.0384715

 Broyden mixing:
  rms(total) = 0.69242E-01    rms(broyden)= 0.69102E-01
  rms(prec ) = 0.76997E-01
  weight for this iteration     100.00

 eigenvalues of (default mixing * dielectric matrix)
  average eigenvalue GAMMA=   1.0006
  2.1208  1.2751  0.7350  0.7350  0.5687  0.5687

 Free energy of the ion-electron system (eV)
  ---------------------------------------------------
  alpha Z        PSCENC =       967.75677095
  Ewald energy   TEWEN  =    -19639.66209906
  -Hartree energ DENC   =    -11249.74361709
  -exchange      EXHF   =         0.00000000
  -V(xc)+E(xc)   XCENC  =       970.79411547
  PAW double counting   =     20227.50268591   -19857.98949326
  entropy T*S    EENTRO =        -0.00000000
  eigenvalues    EBANDS =     -3491.48885055
  atomic energy  EATOM  =     31939.15428920
  Solvation  Ediel_sol  =         0.00000000
  ---------------------------------------------------
  free energy    TOTEN  =      -133.67619843 eV

  energy without entropy =     -133.67619843  energy(sigma->0) =     -133.67619843


--------------------------------------------------------------------------------------------------------




--------------------------------------- Iteration      1(  12)  ---------------------------------------


    POTLOK:  cpu time    0.5060: real time    0.5098
    SETDIJ:  cpu time    0.0226: real time    0.0225
     EDDAV:  cpu time 1382.1910: real time 1393.3936
       DOS:  cpu time    0.0027: real time    0.0027
    CHARGE:  cpu time   34.9111: real time   35.1249
    MIXING:  cpu time    0.0129: real time    0.0130
    --------------------------------------------
      LOOP:  cpu time 1417.6464: real time 1429.0666

 eigenvalue-minimisations  : 95480
 total energy-change (2. order) :-0.4186054E-02  (-0.1703065E-02)
 number of electron     347.9999888 magnetization      19.9804408
 augmentation part        3.8975844 magnetization       7.9836923

 Broyden mixing:
  rms(total) = 0.45674E-01    rms(broyden)= 0.45664E-01
  rms(prec ) = 0.54831E-01
  weight for this iteration     100.00

 eigenvalues of (default mixing * dielectric matrix)
  average eigenvalue GAMMA=   1.1011
  2.4063  1.5778  1.0883  0.6562  0.6562  0.6615  0.6615

 Free energy of the ion-electron system (eV)
  ---------------------------------------------------
  alpha Z        PSCENC =       967.75677095
  Ewald energy   TEWEN  =    -19639.66209906
  -Hartree energ DENC   =    -11249.26871992
  -exchange      EXHF   =         0.00000000
  -V(xc)+E(xc)   XCENC  =       970.90162616
  PAW double counting   =     20235.00956000   -19865.00874677
  entropy T*S    EENTRO =        -0.00000000
  eigenvalues    EBANDS =     -3492.56306504
  atomic energy  EATOM  =     31939.15428920
  Solvation  Ediel_sol  =         0.00000000
  ---------------------------------------------------
  free energy    TOTEN  =      -133.68038449 eV

  energy without entropy =     -133.68038449  energy(sigma->0) =     -133.68038449


--------------------------------------------------------------------------------------------------------




--------------------------------------- Iteration      1(  13)  ---------------------------------------


    POTLOK:  cpu time    0.4792: real time    0.4800
    SETDIJ:  cpu time    0.0225: real time    0.0227
     EDDAV:  cpu time 1502.2259: real time 1512.3749
       DOS:  cpu time    0.0028: real time    0.0028
    CHARGE:  cpu time   34.9176: real time   35.1268
    MIXING:  cpu time    0.0129: real time    0.0129
    --------------------------------------------
      LOOP:  cpu time 1537.6608: real time 1548.0201

 eigenvalue-minimisations  :105672
 total energy-change (2. order) :-0.8676879E-03  (-0.8788688E-03)
 number of electron     347.9999888 magnetization      19.9896464
 augmentation part        3.9398982 magnetization       7.9749410

 Broyden mixing:
  rms(total) = 0.23056E-01    rms(broyden)= 0.22995E-01
  rms(prec ) = 0.27252E-01
  weight for this iteration     100.00

 eigenvalues of (default mixing * dielectric matrix)
  average eigenvalue GAMMA=   1.1391
  2.6297  1.7961  1.1616  0.6484  0.6484  0.8018  0.8018  0.6248

 Free energy of the ion-electron system (eV)
  ---------------------------------------------------
  alpha Z        PSCENC =       967.75677095
  Ewald energy   TEWEN  =    -19639.66209906
  -Hartree energ DENC   =    -11246.43704161
  -exchange      EXHF   =         0.00000000
  -V(xc)+E(xc)   XCENC  =       970.96813833
  PAW double counting   =     20239.08652118   -19869.17662187
  entropy T*S    EENTRO =        -0.00000000
  eigenvalues    EBANDS =     -3495.37120928
  atomic energy  EATOM  =     31939.15428920
  Solvation  Ediel_sol  =         0.00000000
  ---------------------------------------------------
  free energy    TOTEN  =      -133.68125217 eV

  energy without entropy =     -133.68125217  energy(sigma->0) =     -133.68125217


--------------------------------------------------------------------------------------------------------




--------------------------------------- Iteration      1(  14)  ---------------------------------------


    POTLOK:  cpu time    0.5039: real time    0.5060
    SETDIJ:  cpu time    0.0224: real time    0.0224
     EDDAV:  cpu time 1369.6374: real time 1379.3069
       DOS:  cpu time    0.0028: real time    0.0028
    CHARGE:  cpu time   35.0286: real time   35.2004
    MIXING:  cpu time    0.0133: real time    0.0133
    --------------------------------------------
      LOOP:  cpu time 1405.2084: real time 1415.0519

 eigenvalue-minimisations  : 94248
 total energy-change (2. order) :-0.4258653E-04  (-0.1753268E-03)
 number of electron     347.9999888 magnetization      19.9951296
 augmentation part        3.9285417 magnetization       7.9849487

 Broyden mixing:
  rms(total) = 0.51893E-02    rms(broyden)= 0.51880E-02
  rms(prec ) = 0.63659E-02
  weight for this iteration     100.00

 eigenvalues of (default mixing * dielectric matrix)
  average eigenvalue GAMMA=   1.1474
  2.7203  2.0121  1.2164  0.9914  0.6591  0.6591  0.7112  0.7112  0.6459

 Free energy of the ion-electron system (eV)
  ---------------------------------------------------
  alpha Z        PSCENC =       967.75677095
  Ewald energy   TEWEN  =    -19639.66209906
  -Hartree energ DENC   =    -11247.95212239
  -exchange      EXHF   =         0.00000000
  -V(xc)+E(xc)   XCENC  =       970.99703803
  PAW double counting   =     20242.91945786   -19872.94533652
  entropy T*S    EENTRO =         0.00000000
  eigenvalues    EBANDS =     -3493.94929283
  atomic energy  EATOM  =     31939.15428920
  Solvation  Ediel_sol  =         0.00000000
  ---------------------------------------------------
  free energy    TOTEN  =      -133.68129476 eV

  energy without entropy =     -133.68129476  energy(sigma->0) =     -133.68129476


--------------------------------------------------------------------------------------------------------




--------------------------------------- Iteration      1(  15)  ---------------------------------------


    POTLOK:  cpu time    0.5108: real time    0.5154
    SETDIJ:  cpu time    0.0224: real time    0.0224
     EDDAV:  cpu time 1605.2109: real time 1616.2108
       DOS:  cpu time    0.0028: real time    0.0028
    CHARGE:  cpu time   35.0217: real time   35.2263
    MIXING:  cpu time    0.0139: real time    0.0139
    --------------------------------------------
      LOOP:  cpu time 1640.7824: real time 1651.9915

 eigenvalue-minimisations  :114240
 total energy-change (2. order) :-0.4490486E-04  (-0.2019762E-04)
 number of electron     347.9999888 magnetization      19.9993728
 augmentation part        3.9249772 magnetization       7.9908637

 Broyden mixing:
  rms(total) = 0.20241E-02    rms(broyden)= 0.20193E-02
  rms(prec ) = 0.24860E-02
  weight for this iteration     100.00

 eigenvalues of (default mixing * dielectric matrix)
  average eigenvalue GAMMA=   1.1853
  2.7429  2.2228  1.5353  0.9969  0.9969  0.6580  0.6580  0.7062  0.7062  0.6302

 Free energy of the ion-electron system (eV)
  ---------------------------------------------------
  alpha Z        PSCENC =       967.75677095
  Ewald energy   TEWEN  =    -19639.66209906
  -Hartree energ DENC   =    -11248.34171002
  -exchange      EXHF   =         0.00000000
  -V(xc)+E(xc)   XCENC  =       971.00980200
  PAW double counting   =     20243.78581617   -19873.78046291
  entropy T*S    EENTRO =        -0.00000000
  eigenvalues    EBANDS =     -3493.60374599
[...]
   24        1.596   3.534   0.000   5.130
   25        1.597   3.532   0.000   5.129
   26        1.597   3.532   0.000   5.129
   27        1.596   3.534   0.000   5.130
   28        1.596   3.534   0.000   5.130
   29        1.596   3.534   0.000   5.130
   30        1.596   3.534   0.000   5.130
   31        1.597   3.532   0.000   5.129
   32        1.597   3.532   0.000   5.129
   33        1.596   3.534   0.000   5.130
   34        1.596   3.534   0.000   5.130
   35        1.596   3.534   0.000   5.130
   36        1.596   3.534   0.000   5.130
   37        1.597   3.532   0.000   5.129
   38        1.597   3.532   0.000   5.129
   39        1.596   3.534   0.000   5.130
   40        1.596   3.534   0.000   5.130
--------------------------------------------------
tot         61.798 146.512  56.559 264.868
 


 magnetization (x)
 
# of ion       s       p       d       tot
------------------------------------------
    1        0.000   0.001   0.000   0.002
    2        0.000   0.001   0.000   0.002
    3        0.000   0.001   0.000   0.002
    4        0.000   0.001   0.000   0.002
    5        0.000   0.001   0.000   0.002
    6        0.000   0.001   0.000   0.002
    7        0.000   0.001   0.000   0.002
    8        0.000   0.001   0.000   0.002
    9        0.009   0.009   0.039   0.057
   10        0.009   0.009   0.039   0.057
   11        0.009   0.009   0.039   0.057
   12        0.009   0.009   0.039   0.057
   13        0.012   0.011   3.874   3.896
   14        0.012   0.011   3.874   3.896
   15        0.012   0.011   3.874   3.896
   16        0.012   0.011   3.874   3.896
   17        0.005   0.085   0.000   0.090
   18        0.005   0.085   0.000   0.090
   19        0.004   0.085   0.000   0.089
   20        0.004   0.085   0.000   0.089
   21        0.005   0.085   0.000   0.090
   22        0.005   0.085   0.000   0.090
   23        0.005   0.085   0.000   0.090
   24        0.005   0.085   0.000   0.090
   25        0.004   0.085   0.000   0.089
   26        0.004   0.085   0.000   0.089
   27        0.005   0.085   0.000   0.090
   28        0.005   0.085   0.000   0.090
   29        0.005   0.085   0.000   0.090
   30        0.005   0.085   0.000   0.090
   31        0.004   0.085   0.000   0.089
   32        0.004   0.085   0.000   0.089
   33        0.005   0.085   0.000   0.090
   34        0.005   0.085   0.000   0.090
   35        0.005   0.085   0.000   0.090
   36        0.005   0.085   0.000   0.090
   37        0.004   0.085   0.000   0.089
   38        0.004   0.085   0.000   0.089
   39        0.005   0.085   0.000   0.090
   40        0.005   0.085   0.000   0.090
--------------------------------------------------
tot          0.198   2.125  15.654  17.976
 
    CHARGE:  cpu time   35.2173: real time   35.3571
    FORLOC:  cpu time    0.0592: real time    0.0592
    FORNL :  cpu time  212.1711: real time  213.0469
    STRESS:  cpu time 1363.9815: real time 1373.1763
    FORCOR:  cpu time    0.4827: real time    0.4834
    FORHAR:  cpu time    0.1038: real time    0.1068
    MIXING:  cpu time    0.0147: real time    0.0147
    OFIELD:  cpu time    0.0004: real time    0.0016

  FORCE on cell =-STRESS in cart. coord.  units (eV):
  Direction    XX          YY          ZZ          XY          YZ          ZX
  --------------------------------------------------------------------------------------
  Alpha Z   967.75677   967.75677   967.75677
  Ewald   -6546.58431 -6546.58431 -6546.58431     0.00000     0.00000     0.00000
  Hartree  3749.45785  3749.45785  3749.45785    -0.00000    -0.00000    -0.00000
  E(xc)   -1593.11895 -1593.11895 -1593.11895     0.00000     0.00000     0.00000
  Local   -6136.78705 -6136.78705 -6136.78705    -0.00000    -0.00000    -0.00000
  n-local  2315.30128  2314.78023  2313.15443    -0.05022    -0.04418    -0.02373
  augment  1215.42919  1215.42919  1215.42919     0.00000     0.00000     0.00000
  Kinetic  6028.29142  6029.91522  6032.00720    -0.31114    -0.28824    -0.15065
  Fock        0.00000     0.00000     0.00000     0.00000     0.00000     0.00000
  -------------------------------------------------------------------------------------
  Total       0.63676     0.63676     0.63676    -0.00000    -0.00000    -0.00000
  in kB       0.90200     0.90200     0.90200    -0.00000    -0.00000    -0.00000
  external pressure =        0.90 kB  Pullay stress =        0.00 kB


 VOLUME and BASIS-vectors are now :
 -----------------------------------------------------------------------------
  energy-cutoff  :      720.00
  volume of cell :     1131.04
      direct lattice vectors                 reciprocal lattice vectors
    10.419005474  0.000000000  0.000000000     0.095978450  0.000000000  0.000000000
     0.000000000 10.419005474  0.000000000     0.000000000  0.095978450  0.000000000
     0.000000000  0.000000000 10.419005474     0.000000000  0.000000000  0.095978450

  length of vectors
    10.419005474 10.419005474 10.419005474     0.095978450  0.095978450  0.095978450


 FORCES acting on ions
    electron-ion (+dipol)            ewald-force                    non-local-force                 convergence-correction
 -----------------------------------------------------------------------------------------------
   0.957E-06 -.122E-03 -.122E-03   -.184E-05 -.366E-04 -.366E-04   -.203E-19 -.593E-20 -.246E-19   -.885E-06 0.134E-05 0.134E-05
   -.122E-03 0.957E-06 0.957E-06   -.366E-04 -.184E-05 -.184E-05   0.178E-19 -.805E-20 0.178E-19   0.134E-05 -.885E-06 -.885E-06
   -.122E-03 0.957E-06 -.122E-03   -.366E-04 -.184E-05 -.366E-04   0.203E-19 -.174E-19 -.195E-19   0.134E-05 -.885E-06 0.134E-05
   0.957E-06 -.122E-03 0.957E-06   -.184E-05 -.366E-04 -.184E-05   0.229E-19 0.258E-19 -.136E-19   -.885E-06 0.134E-05 -.885E-06
   -.122E-03 -.122E-03 0.957E-06   -.366E-04 -.366E-04 -.184E-05   0.424E-19 0.205E-19 -.136E-19   0.134E-05 0.134E-05 -.885E-06
   0.957E-06 0.957E-06 -.122E-03   -.184E-05 -.184E-05 -.366E-04   0.415E-19 0.404E-19 -.635E-20   -.885E-06 -.885E-06 0.134E-05
   0.957E-06 0.957E-06 0.957E-06   -.184E-05 -.184E-05 -.184E-05   0.288E-19 0.635E-20 0.000E+00   -.885E-06 -.885E-06 -.885E-06
   -.122E-03 -.122E-03 -.122E-03   -.366E-04 -.366E-04 -.366E-04   0.559E-19 0.529E-20 0.292E-19   0.134E-05 0.134E-05 0.134E-05
   0.836E-05 0.115E-05 0.836E-05   0.583E-04 0.521E-05 0.583E-04   -.265E-22 0.529E-22 -.314E-22   -.972E-06 0.131E-06 -.972E-06
   0.836E-05 0.836E-05 0.115E-05   0.583E-04 0.583E-04 0.521E-05   -.265E-22 -.347E-22 0.529E-22   -.972E-06 -.972E-06 0.131E-06
   0.115E-05 0.836E-05 0.836E-05   0.521E-05 0.583E-04 0.583E-04   -.122E-21 0.281E-22 -.314E-22   0.131E-06 -.972E-06 -.972E-06
   0.115E-05 0.115E-05 0.115E-05   0.521E-05 0.521E-05 0.521E-05   -.194E-21 0.000E+00 0.529E-22   0.131E-06 0.131E-06 0.131E-06
   0.203E-05 0.203E-05 0.203E-05   0.102E-04 0.102E-04 0.102E-04   0.152E-21 -.529E-22 0.000E+00   -.999E-06 -.999E-06 -.999E-06
   0.203E-05 0.167E-04 0.167E-04   0.102E-04 0.119E-03 0.119E-03   0.331E-22 -.225E-21 -.116E-21   -.999E-06 -.332E-07 -.332E-07
   0.167E-04 0.203E-05 0.167E-04   0.119E-03 0.102E-04 0.119E-03   0.529E-22 0.000E+00 -.116E-21   -.332E-07 -.999E-06 -.332E-07
   0.167E-04 0.167E-04 0.203E-05   0.119E-03 0.119E-03 0.102E-04   0.529E-22 -.993E-22 0.000E+00   -.332E-07 -.332E-07 -.999E-06
   0.210E-05 -.154E+03 0.170E-05   0.113E-04 0.154E+03 0.113E-04   -.212E-19 -.529E+00 0.728E-19   -.477E-06 0.204E-02 -.477E-06
   0.210E-05 0.154E+03 0.250E-05   0.113E-04 -.154E+03 0.113E-04   -.940E-19 0.529E+00 -.254E-19   -.477E-06 -.204E-02 -.477E-06
   0.210E-05 0.210E-05 -.154E+03   0.113E-04 0.113E-04 0.154E+03   -.254E-19 0.584E-19 -.529E+00   -.477E-06 -.477E-06 0.204E-02
   0.210E-05 0.210E-05 0.154E+03   0.113E-04 0.113E-04 -.154E+03   -.428E-19 -.104E-18 0.529E+00   -.477E-06 -.477E-06 -.204E-02
   -.154E+03 0.210E-05 0.170E-05   0.154E+03 0.113E-04 0.113E-04   -.529E+00 0.152E-19 -.834E-19   0.204E-02 -.477E-06 -.477E-06
   0.154E+03 0.210E-05 0.250E-05   -.154E+03 0.113E-04 0.113E-04   0.529E+00 0.246E-19 0.559E-19   -.204E-02 -.477E-06 -.477E-06
   0.210E-05 -.154E+03 0.182E-05   0.113E-04 0.154E+03 0.121E-04   0.102E-19 -.529E+00 -.356E-19   -.477E-06 0.204E-02 0.575E-07
   0.210E-05 0.154E+03 0.262E-05   0.113E-04 -.154E+03 0.121E-04   -.356E-19 0.529E+00 -.483E-19   -.477E-06 -.204E-02 0.575E-07
   0.210E-05 0.222E-05 -.154E+03   0.113E-04 0.121E-04 0.154E+03   0.496E-19 0.149E-18 -.529E+00   -.477E-06 0.575E-07 0.204E-02
   0.210E-05 0.222E-05 0.154E+03   0.113E-04 0.121E-04 -.154E+03   -.436E-19 -.161E-19 0.529E+00   -.477E-06 0.575E-07 -.204E-02
   -.154E+03 0.222E-05 0.182E-05   0.154E+03 0.121E-04 0.121E-04   -.529E+00 0.119E-19 -.428E-19   0.204E-02 0.575E-07 0.575E-07
   0.154E+03 0.222E-05 0.262E-05   -.154E+03 0.121E-04 0.121E-04   0.529E+00 -.212E-19 -.521E-19   -.204E-02 0.575E-07 0.575E-07
   0.222E-05 -.154E+03 0.182E-05   0.121E-04 0.154E+03 0.121E-04   -.491E-19 -.529E+00 -.847E-20   0.575E-07 0.204E-02 0.575E-07
   0.222E-05 0.154E+03 0.262E-05   0.121E-04 -.154E+03 0.121E-04   0.152E-19 0.529E+00 -.601E-19   0.575E-07 -.204E-02 0.575E-07
   0.222E-05 0.210E-05 -.154E+03   0.121E-04 0.113E-04 0.154E+03   0.360E-19 0.141E-18 -.529E+00   0.575E-07 -.477E-06 0.204E-02
   0.222E-05 0.210E-05 0.154E+03   0.121E-04 0.113E-04 -.154E+03   0.466E-20 -.109E-18 0.529E+00   0.575E-07 -.477E-06 -.204E-02
   -.154E+03 0.210E-05 0.182E-05   0.154E+03 0.113E-04 0.121E-04   -.529E+00 0.678E-19 -.183E-18   0.204E-02 -.477E-06 0.575E-07
   0.154E+03 0.210E-05 0.262E-05   -.154E+03 0.113E-04 0.121E-04   0.529E+00 -.551E-19 -.784E-19   -.204E-02 -.477E-06 0.575E-07
   0.222E-05 -.154E+03 0.170E-05   0.121E-04 0.154E+03 0.113E-04   0.195E-19 -.529E+00 0.169E-19   0.575E-07 0.204E-02 -.477E-06
   0.222E-05 0.154E+03 0.250E-05   0.121E-04 -.154E+03 0.113E-04   -.202E-18 0.529E+00 -.119E-18   0.575E-07 -.204E-02 -.477E-06
   0.222E-05 0.222E-05 -.154E+03   0.121E-04 0.121E-04 0.154E+03   0.635E-19 0.197E-18 -.529E+00   0.575E-07 0.575E-07 0.204E-02
   0.222E-05 0.222E-05 0.154E+03   0.121E-04 0.121E-04 -.154E+03   -.673E-19 0.847E-21 0.529E+00   0.575E-07 0.575E-07 -.204E-02
   -.154E+03 0.222E-05 0.170E-05   0.154E+03 0.121E-04 0.113E-04   -.529E+00 -.424E-19 -.885E-19   0.204E-02 0.575E-07 -.477E-06
   0.154E+03 0.222E-05 0.250E-05   -.154E+03 0.121E-04 0.113E-04   0.529E+00 0.330E-19 -.424E-20   -.204E-02 0.575E-07 -.477E-06
 -----------------------------------------------------------------------------------------------
   -.106E-02 -.106E-02 -.106E-02   0.568E-13 -.286E-13 -.854E-13   0.333E-15 0.555E-15 0.222E-15   -.359E-05 -.359E-05 -.359E-05
 
 
 POSITION                                       TOTAL-FORCE (eV/Angst)
 -----------------------------------------------------------------------------------
      2.60475      7.81425      7.81425         0.000000      0.000000      0.000000
      7.81425      2.60475      2.60475        -0.000000     -0.000000      0.000000
      7.81425      2.60475      7.81425        -0.000000     -0.000000      0.000000
      2.60475      7.81425      2.60475         0.000000      0.000000      0.000000
      7.81425      7.81425      2.60475        -0.000000      0.000000      0.000000
      2.60475      2.60475      7.81425         0.000000     -0.000000      0.000000
      2.60475      2.60475      2.60475         0.000000     -0.000000      0.000000
      7.81425      7.81425      7.81425        -0.000000      0.000000      0.000000
      5.20950      0.00000      5.20950         0.000000      0.000000      0.000000
      5.20950      5.20950      0.00000         0.000000      0.000000      0.000000
      0.00000      5.20950      5.20950         0.000000      0.000000      0.000000
      0.00000      0.00000      0.00000        -0.000000      0.000000      0.000000
      5.20950      5.20950      5.20950        -0.000000      0.000000      0.000000
      5.20950      0.00000      0.00000         0.000000     -0.000000      0.000000
      0.00000      5.20950      0.00000         0.000000      0.000000      0.000000
      0.00000      0.00000      5.20950         0.000000     -0.000000      0.000000
      5.20950      7.64244      5.20950        -0.000000     -0.046213      0.000000
      5.20950      2.77657      5.20950         0.000000      0.046213      0.000000
      5.20950      5.20950      7.64244         0.000000     -0.000000     -0.046213
      5.20950      5.20950      2.77657        -0.000000     -0.000000      0.046213
      7.64244      5.20950      5.20950        -0.046213     -0.000000      0.000000
      2.77657      5.20950      5.20950         0.046213      0.000000      0.000000
      5.20950      2.43293      0.00000         0.000000     -0.046213      0.000000
      5.20950      7.98607      0.00000        -0.000000      0.046213      0.000000
      5.20950      0.00000      2.43293        -0.000000      0.000000     -0.046213
      5.20950      0.00000      7.98607         0.000000      0.000000      0.046213
      7.64244      0.00000      0.00000        -0.046213     -0.000000      0.000000
      2.77657      0.00000      0.00000         0.046213     -0.000000      0.000000
      0.00000      7.64244      0.00000        -0.000000     -0.046213      0.000000
      0.00000      2.77657      0.00000        -0.000000      0.046213      0.000000
      0.00000      5.20950      2.43293        -0.000000     -0.000000     -0.046213
      0.00000      5.20950      7.98607         0.000000     -0.000000      0.046213
      2.43293      5.20950      0.00000        -0.046213      0.000000      0.000000
      7.98607      5.20950      0.00000         0.046213      0.000000      0.000000
      0.00000      2.43293      5.20950        -0.000000     -0.046213      0.000000
      0.00000      7.98607      5.20950         0.000000      0.046213      0.000000
      0.00000      0.00000      7.64244         0.000000     -0.000000     -0.046213
      0.00000      0.00000      2.77657         0.000000      0.000000      0.046213
      2.43293      0.00000      5.20950        -0.046213     -0.000000      0.000000
      7.98607      0.00000      5.20950         0.046213     -0.000000      0.000000
 -----------------------------------------------------------------------------------
    total drift:                               -0.001066     -0.001066     -0.001066


--------------------------------------------------------------------------------------------------------



  FREE ENERGIE OF THE ION-ELECTRON SYSTEM (eV)
  ---------------------------------------------------
  free  energy   TOTEN  =      -133.68135987 eV

  energy  without entropy=     -133.68135987  energy(sigma->0) =     -133.68135987
 


--------------------------------------------------------------------------------------------------------


    POTLOK:  cpu time    0.5167: real time    0.5241


--------------------------------------------------------------------------------------------------------


 writing wavefunctions
     LOOP+:  cpu time26659.0384: real time26908.2154
    4ORBIT:  cpu time    0.0000: real time    0.0000
 


 total charge     
 
# of ion       s       p       d       tot
------------------------------------------
    1        1.835   4.715   0.021   6.572
    2        1.835   4.715   0.021   6.572
    3        1.835   4.715   0.021   6.572
    4        1.835   4.715   0.021   6.572
    5        1.835   4.715   0.021   6.572
    6        1.835   4.715   0.021   6.572
    7        1.835   4.715   0.021   6.572
    8        1.835   4.715   0.021   6.572
    9        0.144   0.097   9.164   9.405
   10        0.144   0.097   9.164   9.405
   11        0.144   0.097   9.164   9.405
   12        0.144   0.097   9.164   9.405
   13        2.056   5.903   4.933  12.892
   14        2.056   5.903   4.933  12.892
   15        2.056   5.903   4.933  12.892
   16        2.056   5.903   4.933  12.892
   17        1.596   3.534   0.000   5.130
   18        1.596   3.534   0.000   5.130
   19        1.597   3.532   0.000   5.129
   20        1.597   3.532   0.000   5.129
   21        1.596   3.534   0.000   5.130
   22        1.596   3.534   0.000   5.130
   23        1.596   3.534   0.000   5.130
   24        1.596   3.534   0.000   5.130
   25        1.597   3.532   0.000   5.129
   26        1.597   3.532   0.000   5.129
   27        1.596   3.534   0.000   5.130
   28        1.596   3.534   0.000   5.130
   29        1.596   3.534   0.000   5.130
   30        1.596   3.534   0.000   5.130
   31        1.597   3.532   0.000   5.129
   32        1.597   3.532   0.000   5.129
   33        1.596   3.534   0.000   5.130
   34        1.596   3.534   0.000   5.130
   35        1.596   3.534   0.000   5.130
   36        1.596   3.534   0.000   5.130
   37        1.597   3.532   0.000   5.129
   38        1.597   3.532   0.000   5.129
   39        1.596   3.534   0.000   5.130
   40        1.596   3.534   0.000   5.130
--------------------------------------------------
tot         61.798 146.512  56.559 264.868
 


 magnetization (x)
 
# of ion       s       p       d       tot
------------------------------------------
    1        0.000   0.001   0.000   0.002
    2        0.000   0.001   0.000   0.002
    3        0.000   0.001   0.000   0.002
    4        0.000   0.001   0.000   0.002
    5        0.000   0.001   0.000   0.002
    6        0.000   0.001   0.000   0.002
    7        0.000   0.001   0.000   0.002
    8        0.000   0.001   0.000   0.002
    9        0.009   0.009   0.039   0.057
   10        0.009   0.009   0.039   0.057
   11        0.009   0.009   0.039   0.057
   12        0.009   0.009   0.039   0.057
   13        0.012   0.011   3.874   3.896
   14        0.012   0.011   3.874   3.896
   15        0.012   0.011   3.874   3.896
   16        0.012   0.011   3.874   3.896
   17        0.005   0.085   0.000   0.090
   18        0.005   0.085   0.000   0.090
   19        0.004   0.085   0.000   0.089
   20        0.004   0.085   0.000   0.089
   21        0.005   0.085   0.000   0.090
   22        0.005   0.085   0.000   0.090
   23        0.005   0.085   0.000   0.090
   24        0.005   0.085   0.000   0.090
   25        0.004   0.085   0.000   0.089
   26        0.004   0.085   0.000   0.089
   27        0.005   0.085   0.000   0.090
   28        0.005   0.085   0.000   0.090
   29        0.005   0.085   0.000   0.090
   30        0.005   0.085   0.000   0.090
   31        0.004   0.085   0.000   0.089
   32        0.004   0.085   0.000   0.089
   33        0.005   0.085   0.000   0.090
   34        0.005   0.085   0.000   0.090
   35        0.005   0.085   0.000   0.090
   36        0.005   0.085   0.000   0.090
   37        0.004   0.085   0.000   0.089
   38        0.004   0.085   0.000   0.089
   39        0.005   0.085   0.000   0.090
   40        0.005   0.085   0.000   0.090
--------------------------------------------------
tot          0.198   2.125  15.654  17.976
 

 total amount of memory used by VASP MPI-rank0  3494312. kBytes
=======================================================================

   base      :      30000. kBytes
   nonl-proj :    2325908. kBytes
   fftplans  :      12348. kBytes
   grid      :      96061. kBytes
   one-center:       1244. kBytes
   wavefun   :    1028751. kBytes
 
  
  
 General timing and accounting informations for this job:
 ========================================================
  
                  Total CPU time used (sec):    26960.291
                            User time (sec):    26793.022
                          System time (sec):      167.269
                         Elapsed time (sec):    27214.291
  
                   Maximum memory used (kb):     3606656.
                   Average memory used (kb):           0.
  
                          Minor page faults:      5814659
                          Major page faults:            0
                 Voluntary context switches:        11524
