 vasp.5.4.4.18Apr17-6-g9f103f2a35 (build Jun 10 2021 23:13:02) gamma-only       
  
 executed on             LinuxIFC date 2022.08.07  19:45:13
 running on  168 total cores
 distrk:  each k-point on  168 cores,    1 groups
 distr:  one band on NCORES_PER_BAND=  14 cores,   12 groups


--------------------------------------------------------------------------------------------------------


 INCAR:
 POTCAR:    PAW_PBE Te 08Apr2002                  
 POTCAR:    PAW_PBE Sb 06Sep2000                  
 POTCAR:    PAW_PBE Te 08Apr2002                  
   VRHFIN =Te: s2p4                                                             
   LEXCH  = PE                                                                  
   EATOM  =   223.2721 eV,   16.4100 Ry                                         
                                                                                
   TITEL  = PAW_PBE Te 08Apr2002                                                
   LULTRA =        F    use ultrasoft PP ?                                      
   IUNSCR =        1    unscreen: 0-lin 1-nonlin 2-no                           
   RPACOR =    2.200    partial core radius                                     
   POMASS =  127.600; ZVAL   =    6.000    mass and valenz                      
   RCORE  =    2.300    outmost cutoff radius                                   
   RWIGS  =    2.900; RWIGS  =    1.535    wigner-seitz radius (au A)           
   ENMAX  =  174.982; ENMIN  =  131.236 eV                                      
   ICORE  =        3    local potential                                         
   LCOR   =        T    correct aug charges                                     
   LPAW   =        T    paw PP                                                  
   EAUG   =  368.792                                                            
   DEXC   =    0.000                                                            
   RMAX   =    2.345    core radius for proj-oper                               
   RAUG   =    1.300    factor for augmentation sphere                          
   RDEP   =    2.397    radius for radial grids                                 
   RDEPT  =    2.174    core radius for aug-charge                              
                                                                                
   Atomic configuration                                                         
   13 entries                                                                   
     n  l   j            E        occ.                                          
     1  0  0.50    -31621.2075   2.0000                                         
     2  0  0.50     -4848.7941   2.0000                                         
     2  1  1.50     -4352.1960   6.0000                                         
     3  0  0.50      -964.9612   2.0000                                         
     3  1  1.50      -803.6179   6.0000                                         
     3  2  2.50      -559.8710  10.0000                                         
     4  0  0.50      -164.3522   2.0000                                         
     4  1  1.50      -114.3756   6.0000                                         
     4  2  2.50       -41.6483  10.0000                                         
     5  0  0.50       -15.1072   2.0000                                         
     5  1  0.50        -5.9526   4.0000                                         
     5  2  1.50        -5.4423   0.0000                                         
     4  3  2.50        -5.4423   0.0000                                         
   Description                                                                  
     l       E           TYP  RCUT    TYP  RCUT                                 
     0    -15.1072389     23  2.300                                             
     0    -16.4678215     23  2.300                                             
     1     -5.9526306     23  2.300                                             
     1     -2.4873968     23  2.300                                             
     2     -5.4423304     23  2.300                                             
     3     -1.3605826     23  2.300                                             
  local pseudopotential read in
  partial core-charges read in
  partial kinetic energy density read in
  atomic valenz-charges read in
  non local Contribution for L=           0  read in
    real space projection operators read in
  non local Contribution for L=           0  read in
    real space projection operators read in
  non local Contribution for L=           1  read in
    real space projection operators read in
  non local Contribution for L=           1  read in
    real space projection operators read in
  non local Contribution for L=           2  read in
    real space projection operators read in
    PAW grid and wavefunctions read in
 
   number of l-projection  operators is LMAX  =           5
   number of lm-projection operators is LMMAX =          13
 
 POTCAR:    PAW_PBE Sb 06Sep2000                  
   VRHFIN =Sb: s2p3                                                             
   LEXCH  = PE                                                                  
   EATOM  =   149.9515 eV,   11.0211 Ry                                         
                                                                                
   TITEL  = PAW_PBE Sb 06Sep2000                                                
   LULTRA =        F    use ultrasoft PP ?                                      
   IUNSCR =        1    unscreen: 0-lin 1-nonlin 2-no                           
   RPACOR =    2.200    partial core radius                                     
   POMASS =  121.750; ZVAL   =    5.000    mass and valenz                      
   RCORE  =    2.300    outmost cutoff radius                                   
   RWIGS  =    2.980; RWIGS  =    1.577    wigner-seitz radius (au A)           
   ENMAX  =  172.069; ENMIN  =  129.052 eV                                      
   ICORE  =        3    local potential                                         
   LCOR   =        T    correct aug charges                                     
   LPAW   =        T    paw PP                                                  
   EAUG   =  380.513                                                            
   DEXC   =    0.000                                                            
   RMAX   =    2.346    core radius for proj-oper                               
   RAUG   =    1.300    factor for augmentation sphere                          
   RDEP   =    2.360    radius for radial grids                                 
   RDEPT  =    2.192    core radius for aug-charge                              
                                                                                
   Atomic configuration                                                         
   13 entries                                                                   
     n  l   j            E        occ.                                          
     1  0  0.50    -30298.2797   2.0000                                         
     2  0  0.50     -4610.2252   2.0000                                         
     2  1  1.50     -4138.3407   6.0000                                         
     3  0  0.50      -903.8815   2.0000                                         
     3  1  1.50      -750.1337   6.0000                                         
     3  2  2.50      -515.7092  10.0000                                         
     4  0  0.50      -148.8034   2.0000                                         
     4  1  1.50      -101.7581   6.0000                                         
     4  2  2.50       -33.5048  10.0000                                         
     5  0  0.50       -12.8298   2.0000                                         
     5  1  0.50        -4.8276   3.0000                                         
     5  2  1.50        -4.0817   0.0000                                         
     4  3  2.50        -4.0817   0.0000                                         
   Description                                                                  
     l       E           TYP  RCUT    TYP  RCUT                                 
     0    -12.8297861     23  2.300                                             
     0     13.6058260     23  2.300                                             
     1     -4.8275512     23  2.300                                             
     1     -0.7245443     23  2.300                                             
     2     -4.0817478     23  2.300                                             
     3     -1.3605826     23  2.300                                             
  local pseudopotential read in
  partial core-charges read in
  partial kinetic energy density read in
  atomic valenz-charges read in
  non local Contribution for L=           0  read in
    real space projection operators read in
  non local Contribution for L=           0  read in
    real space projection operators read in
  non local Contribution for L=           1  read in
    real space projection operators read in
  non local Contribution for L=           1  read in
    real space projection operators read in
  non local Contribution for L=           2  read in
    real space projection operators read in
    PAW grid and wavefunctions read in
 
   number of l-projection  operators is LMAX  =           5
   number of lm-projection operators is LMMAX =          13
 
 Optimization of the real space projectors (new method)

 maximal supplied QI-value         = 16.25
 optimisation between [QCUT,QGAM] = [ 10.24, 20.48] = [ 29.35,117.42] Ry 
 Optimized for a Real-space Cutoff    1.42 Angstroem

   l    n(q)    QCUT    max X(q) W(low)/X(q) W(high)/X(q)  e(spline) 
   0      9    10.239   224.858    0.56E-04    0.13E-03    0.81E-07
   0      9    10.239   205.313    0.57E-04    0.13E-03    0.82E-07
   1      8    10.239   119.695    0.24E-03    0.27E-03    0.71E-07
   1      8    10.239    84.282    0.23E-03    0.26E-03    0.70E-07
   2      8    10.239     5.599    0.27E-04    0.88E-04    0.47E-07
 Optimization of the real space projectors (new method)

 maximal supplied QI-value         = 16.25
 optimisation between [QCUT,QGAM] = [ 10.24, 20.48] = [ 29.35,117.42] Ry 
 Optimized for a Real-space Cutoff    1.38 Angstroem

   l    n(q)    QCUT    max X(q) W(low)/X(q) W(high)/X(q)  e(spline) 
   0      8    10.239    19.000    0.74E-04    0.15E-03    0.61E-07
   0      8    10.239     9.057    0.91E-04    0.19E-03    0.74E-07
   1      8    10.239   125.345    0.50E-03    0.38E-03    0.74E-07
   1      8    10.239    79.963    0.49E-03    0.37E-03    0.73E-07
   2      7    10.239     6.963    0.74E-04    0.11E-03    0.40E-07
  PAW_PBE Te 08Apr2002                  :
 energy of atom  1       EATOM= -223.2721
 kinetic energy error for atom=    0.0011 (will be added to EATOM!!)
  PAW_PBE Sb 06Sep2000                  :
 energy of atom  2       EATOM= -149.9515
 kinetic energy error for atom=    0.0008 (will be added to EATOM!!)
 
 
 POSCAR: POSCAR file written by OVITO Basic 3.5.3
  positions in direct lattice
  No initial velocities read in
 exchange correlation table for  LEXCH =        8
   RHO(1)=    0.500       N(1)  =     2000
   RHO(2)=  100.500       N(2)  =     4000
 


--------------------------------------------------------------------------------------------------------


 ion  position               nearest neighbor table
   1  0.000  0.399  0.999- 804 3.10 792 3.15 268 3.15 293 3.17 294 3.25 309 3.28
   2  0.503  0.295  1.000- 810 3.05 794 3.13 304 3.13  11 3.14 296 3.25 267 3.31
   3  0.334  0.600  0.996- 801 3.03 803 3.05 796 3.07  18 3.27 300 3.31 299 3.36
   4  0.834  0.105  0.001- 291 3.04 802 3.14 303 3.15 798 3.16 292 3.26 266 3.34
   5  0.830  0.505  0.003- 308 3.01 306 3.09 808 3.21 294 3.23 270 3.34 268 3.35
   6  0.995  0.002  0.999- 802 3.07 303 3.09  14 3.15 269 3.18  12 3.26 805 3.31
   7  0.996  0.602  0.001-  19 3.11 306 3.14 793 3.15 309 3.17 268 3.28 262 3.33
   8  0.500  0.701  0.996- 796 3.04 809 3.06 799 3.09  20 3.25 302 3.33  18 3.38
   9  0.666  0.003  0.999- 797 3.08 266 3.11 800 3.15  15 3.19 292 3.23  17 3.31
  10  0.168  0.299  0.001- 298 3.08 307 3.10 807 3.12 806 3.17 792 3.28 293 3.28
  11  0.390  0.297  0.036- 273 3.12   2 3.14 323 3.14 318 3.22 276 3.22  27 3.23
  12  0.060  0.897  0.035- 286 3.01 277 3.10  24 3.10 330 3.23   6 3.26  26 3.34
  13  0.386  0.099  0.039- 328 3.06 326 3.08 323 3.15 278 3.23 273 3.28 290 3.28
  14  0.059  0.099  0.035- 285 2.99 330 3.14   6 3.15 288 3.18 322 3.19  23 3.32
  15  0.553  0.004  0.036- 290 3.05 326 3.14   9 3.19 282 3.21 316 3.21  28 3.33
  16  0.224  0.798  0.032- 275 2.98 289 3.01 286 3.12 324 3.29  24 3.36 329 3.36
  17  0.726  0.895  0.036- 271 3.00 319 3.00 272 3.16  21 3.20   9 3.31  28 3.40
  18  0.383  0.703  0.038- 324 2.98 289 3.12  22 3.20   3 3.27  29 3.31   8 3.38
  19  0.052  0.702  0.037-  24 3.08   7 3.11 325 3.12 311 3.14 277 3.16 275 3.25
  20  0.558  0.803  0.035- 282 3.03 272 3.07  25 3.23   8 3.25  28 3.31  22 3.36
  21  0.775  0.003  0.073- 292 3.03 303 3.12  17 3.20 342 3.25  33 3.27 350 3.32
  22  0.442  0.804  0.075- 340 3.05 341 3.13 297 3.14  18 3.20  31 3.31  20 3.36
  23  0.942  0.103  0.075- 339 3.06 291 3.07 333 3.23 303 3.26  33 3.26  14 3.32
  24  0.109  0.799  0.073-  19 3.08  12 3.10  35 3.15  36 3.20 344 3.21  16 3.36
  25  0.614  0.703  0.074- 347 3.05 310 3.08  20 3.23 302 3.27  39 3.27  31 3.32
  26  0.941  0.905  0.073- 303 3.04 342 3.10 305 3.20 333 3.22 344 3.25  12 3.34
  27  0.276  0.297  0.074- 345 3.07 336 3.10 298 3.12  32 3.18  11 3.23 307 3.27
  28  0.610  0.902  0.078- 341 3.05 350 3.05 347 3.09  20 3.31  15 3.33  17 3.40
  29  0.446  0.595  0.074- 334 3.00 300 3.11 302 3.19 335 3.20  18 3.31  31 3.35
  30  0.281  0.502  0.071- 300 3.04 307 3.13 299 3.14  32 3.15 335 3.26  37 3.36
  31  0.500  0.700  0.115- 352 3.03 367 3.03 366 3.09  22 3.31  25 3.32  29 3.35
  32  0.338  0.402  0.108- 318 2.99  30 3.15  27 3.18  42 3.23  50 3.27  49 3.29
  33  0.829  0.101  0.115- 356 2.96 368 3.05 359 3.13  23 3.26  21 3.27 313 3.29
  34  0.669  0.396  0.111- 357 3.06 327 3.16 317 3.16 354 3.21  46 3.30 320 3.34
  35  0.165  0.704  0.113- 353 3.07 358 3.10  24 3.15 365 3.19 324 3.27 311 3.30
  36  0.167  0.902  0.110- 330 3.10  47 3.14 329 3.17 351 3.19 358 3.20  24 3.20
  37  0.162  0.504  0.111- 355 2.99 311 3.08 365 3.17 315 3.23  49 3.24  30 3.36
  38  0.832  0.297  0.114- 368 3.04 361 3.08 357 3.09 313 3.26 312 3.27 327 3.35
  39  0.665  0.597  0.113- 367 3.04 354 3.05 370 3.22 320 3.24 321 3.26  25 3.27
  40  0.502  0.297  0.108- 323 3.01 317 3.09 318 3.16  42 3.17  48 3.24  46 3.40
  41  0.057  0.304  0.145- 345 3.08 331 3.09 339 3.15 387 3.23 374 3.29  56 3.43
  42  0.395  0.302  0.148- 383 3.10  40 3.17 390 3.18  32 3.23  59 3.24 336 3.28
  43  0.722  0.903  0.146- 350 3.05 342 3.08 347 3.14 375 3.26 382 3.27 389 3.32
  44  0.386  0.904  0.147- 341 3.09 349 3.12 340 3.21 386 3.25 384 3.25 373 3.30
  45  0.390  0.103  0.146- 346 3.01 336 3.06  52 3.20 349 3.25 390 3.29 386 3.32
  46  0.554  0.404  0.151- 383 3.00 380 3.02 334 3.23 371 3.25  34 3.30  40 3.40
  47  0.221  0.004  0.147-  52 3.05 343 3.14  36 3.14 349 3.17  54 3.19 384 3.30
  48  0.557  0.199  0.148-  55 3.15 346 3.18 371 3.18 390 3.19 348 3.20  40 3.24
  49  0.223  0.401  0.148-  59 3.02 385 3.07  37 3.24 387 3.25 345 3.26  32 3.29
  50  0.389  0.503  0.150- 381 3.05 385 3.08 383 3.20 335 3.25  32 3.27 334 3.28
  51  0.942  0.497  0.185- 398 3.08 404 3.09 361 3.10 355 3.26  61 3.29 364 3.33
  52  0.277  0.100  0.183-  47 3.05 396 3.14 360 3.19  45 3.20  67 3.25  63 3.28
  53  0.106  0.600  0.181- 355 3.01 353 3.11 365 3.17  69 3.25  61 3.30  68 3.35
  54  0.109  0.995  0.185- 407 3.05 351 3.10  47 3.19  62 3.22  63 3.32 362 3.35
  55  0.608  0.100  0.188- 402 3.05 410 3.08  48 3.15 395 3.17 363 3.21 356 3.29
  56  0.941  0.299  0.188- 406 2.97 394 3.11 398 3.15 368 3.20 361 3.35  41 3.43
  57  0.939  0.697  0.182- 364 3.06 353 3.12 409 3.15 369 3.16  66 3.21  61 3.39
  58  0.941  0.098  0.186- 401 3.04 368 3.16 359 3.18 394 3.18  62 3.26 362 3.31
  59  0.273  0.300  0.181-  49 3.02 360 3.04 408 3.12  42 3.24  67 3.25  64 3.36
  60  0.608  0.698  0.186- 400 3.07 397 3.08 367 3.15 391 3.23 366 3.24 370 3.27
  61  1.000  0.598  0.225-  77 2.99 415 3.08  79 3.09  51 3.29  53 3.30  57 3.39
  62  0.999  0.995  0.225-  76 3.02 412 3.10  54 3.22 427 3.25  58 3.26 388 3.28
  63  0.163  0.106  0.223- 374 3.03 427 3.08 417 3.08  52 3.28 419 3.31  54 3.32
  64  0.333  0.403  0.223- 423 3.12 420 3.15 383 3.19 385 3.19 411 3.22  59 3.36
  65  0.501  0.501  0.221- 380 3.07 383 3.09 381 3.16 426 3.24 420 3.26  72 3.35
  66  0.998  0.799  0.220- 388 3.09  80 3.13 379 3.15  57 3.21  76 3.33  79 3.39
  67  0.336  0.202  0.221- 390 3.05 416 3.11 411 3.16  52 3.25  59 3.25 417 3.29
  68  0.167  0.497  0.221- 387 3.02 423 3.07 385 3.13 415 3.31  53 3.35 428 3.36
  69  0.167  0.702  0.219- 377 3.01 379 3.03  53 3.25 430 3.27  79 3.35 428 3.41
  70  0.833  0.906  0.220- 382 3.00 412 3.07 388 3.18 375 3.25  80 3.28 425 3.30
  71  0.886  0.403  0.258- 404 3.11 432 3.13 406 3.15 398 3.19 437 3.23  82 3.35
  72  0.557  0.604  0.262- 450 2.96 435 3.08 449 3.11 397 3.32 400 3.34  65 3.35
  73  0.385  0.695  0.257- 392 3.00 400 3.13 436 3.17 399 3.23 449 3.24  83 3.31
  74  0.723  0.500  0.257- 404 3.08 397 3.12 405 3.15 432 3.20  81 3.21 435 3.28
  75  0.884  0.204  0.260- 446 3.06 406 3.13  82 3.14 401 3.19 394 3.25  87 3.37
  76  0.055  0.901  0.261-  62 3.02 444 3.04  86 3.19  85 3.26 407 3.27  66 3.33
  77  0.890  0.599  0.258-  61 2.99 404 3.17 437 3.19 438 3.24  81 3.25 409 3.28
  78  0.056  0.299  0.256- 394 3.02 408 3.08 398 3.12 442 3.23  84 3.33  82 3.36
  79  0.055  0.695  0.262- 447 3.02  61 3.09 438 3.11  85 3.20  69 3.35  66 3.39
  80  0.886  0.793  0.256- 409 2.98  66 3.13  90 3.24  70 3.28 438 3.31  86 3.38
  81  0.773  0.605  0.295- 422 3.08  93 3.12 453 3.17  74 3.21  77 3.25  91 3.36
  82  0.943  0.298  0.299- 454 3.06  95 3.08 455 3.08  75 3.14  71 3.35  78 3.36
  83  0.444  0.803  0.294- 424 3.06 421 3.12  99 3.15 458 3.22  73 3.31 463 3.32
  84  0.116  0.403  0.296- 423 3.04 415 3.07 465 3.13 466 3.30  78 3.33  95 3.34
  85  0.115  0.797  0.298- 451 3.12 459 3.14 469 3.14  79 3.20 430 3.23  76 3.26
  86  0.942  0.898  0.298-  98 3.12 468 3.12 459 3.15  76 3.19 412 3.23  80 3.38
  87  0.947  0.094  0.298- 468 2.99 427 3.11 412 3.18 455 3.20  94 3.22  75 3.37
  88  0.442  0.001  0.292- 413 3.05 416 3.06 421 3.09 461 3.29 458 3.37  92 3.38
  89  0.278  0.301  0.295- 417 3.10 423 3.12 411 3.16 466 3.17 470 3.28 460 3.36
  90  0.771  0.801  0.294- 425 3.02 422 3.09 452 3.23  80 3.24  98 3.33  93 3.36
  91  0.830  0.499  0.336- 489 3.02 471 3.10 486 3.13 432 3.21 437 3.30  81 3.36
  92  0.500  0.099  0.337- 485 3.01 490 3.02 484 3.05 434 3.35  88 3.38 440 3.39
  93  0.832  0.697  0.334- 486 3.09  81 3.12 438 3.13 104 3.16 476 3.20  90 3.36
  94  0.831  0.096  0.334- 439 3.12 477 3.13 102 3.14 488 3.19  87 3.22 446 3.28
  95  0.994  0.401  0.333- 437 3.04 471 3.07  82 3.08 107 3.28 108 3.32  84 3.34
  96  0.670  0.404  0.331- 432 3.00 435 3.06 489 3.10 483 3.26 445 3.27 110 3.33
  97  0.167  0.106  0.332- 442 3.00 482 3.15 448 3.16 444 3.21 103 3.22 101 3.36
  98  0.832  0.900  0.335- 477 3.04 475 3.11  86 3.12 439 3.22 104 3.28  90 3.33
  99  0.500  0.705  0.332- 479 3.03  83 3.15 487 3.17 450 3.21 449 3.22 109 3.23
 100  0.334  0.604  0.333- 449 3.09 487 3.10 436 3.12 481 3.23 443 3.28 106 3.36
 101  0.227  0.995  0.369- 461 2.99 451 3.06 118 3.12 113 3.32 119 3.35  97 3.36
 102  0.717  0.098  0.370- 505 3.12 499 3.13  94 3.14 456 3.18 506 3.19 457 3.21
 103  0.052  0.096  0.369- 468 3.03 455 3.09 116 3.10  97 3.22 117 3.29 119 3.35
 104  0.894  0.794  0.371- 497 3.04 459 3.09  93 3.16 120 3.24  98 3.28 500 3.32
 105  0.062  0.897  0.370- 451 3.00 509 3.15 459 3.16 468 3.23 120 3.26 119 3.27
 106  0.389  0.492  0.371- 470 2.96 508 3.08 492 3.21 467 3.25 114 3.34 100 3.36
 107  0.061  0.498  0.373- 507 3.03 502 3.08 465 3.16 491 3.17  95 3.28 462 3.32
 108  0.061  0.295  0.370- 455 3.08 466 3.09 117 3.17 493 3.21 507 3.29  95 3.32
 109  0.554  0.596  0.368- 453 3.03 467 3.07 495 3.23  99 3.23 496 3.33 114 3.41
 110  0.553  0.395  0.370- 464 3.03 501 3.06 508 3.16 467 3.27 495 3.31  96 3.33
 111  0.445  0.196  0.409- 528 3.01 484 3.17 527 3.20 126 3.23 490 3.24 474 3.31
 112  0.775  0.597  0.409- 529 3.04 489 3.15 121 3.15 522 3.23 486 3.29 476 3.30
 113  0.280  0.099  0.411- 524 3.06 527 3.08 521 3.18 484 3.19 482 3.31 101 3.32
 114  0.442  0.599  0.412- 519 3.00 525 3.04 526 3.05 106 3.34 487 3.41 109 3.41
 115  0.280  0.700  0.405- 487 3.02 481 3.08 473 3.13 519 3.22 125 3.30 130 3.33
 116  0.943  0.098  0.406- 103 3.10 477 3.11 127 3.14 488 3.19 513 3.23 122 3.25
 117  0.112  0.196  0.409- 521 3.11 122 3.11 108 3.17 124 3.24 482 3.28 103 3.29
 118  0.278  0.900  0.409- 101 3.12 125 3.13 524 3.14 515 3.18 473 3.28 480 3.30
 119  0.114  0.998  0.411- 515 3.00 521 3.11 513 3.14 105 3.27 101 3.35 103 3.35
 120  0.947  0.903  0.408- 513 3.04 477 3.09 516 3.20 104 3.24 105 3.26 123 3.32
 121  0.837  0.498  0.444- 132 3.02 491 3.09 112 3.15 540 3.19 498 3.23 136 3.33
 122  1.000  0.201  0.445- 135 3.10 117 3.11 493 3.15 138 3.17 134 3.25 116 3.25
 123  0.825  0.901  0.444- 541 3.01 506 3.05 500 3.07 547 3.29 120 3.32 535 3.35
 124  0.173  0.302  0.445- 494 3.05 549 3.06 550 3.14 507 3.17 117 3.24 138 3.29
 125  0.337  0.802  0.445- 510 3.08 544 3.10 118 3.13 534 3.19 115 3.30 133 3.31
 126  0.505  0.301  0.445- 536 3.08 508 3.09 501 3.15 532 3.20 111 3.23 137 3.24
 127  0.832  0.098  0.443- 506 3.05 116 3.14 140 3.19 135 3.20 547 3.25 499 3.25
 128  0.832  0.300  0.438- 498 2.99 493 3.01 499 3.04 135 3.38 132 3.41 139 3.42
 129  0.668  0.198  0.440- 505 3.01 499 3.05 501 3.10 137 3.32 140 3.33 139 3.40
 130  0.164  0.699  0.445- 509 3.08 502 3.11 533 3.13 133 3.16 548 3.23 115 3.33
 131  0.392  0.095  0.481- 524 3.04 528 3.09 552 3.15 527 3.22 148 3.33 144 3.34
 132  0.888  0.404  0.481- 121 3.02 557 3.04 555 3.19 511 3.23 150 3.33 128 3.41
 133  0.218  0.800  0.483- 570 3.02 515 3.12 130 3.16 142 3.17 143 3.30 125 3.31
 134  0.057  0.096  0.482- 521 3.05 568 3.09 513 3.15 566 3.22 122 3.25 567 3.27
 135  0.890  0.198  0.481- 122 3.10 567 3.13 127 3.20 150 3.21 554 3.25 128 3.38
 136  0.719  0.497  0.484- 553 3.00 555 3.11 560 3.19 520 3.20 121 3.33 529 3.35
 137  0.559  0.199  0.484- 561 3.06 149 3.13 126 3.24 148 3.27 129 3.32 528 3.33
 138  0.054  0.302  0.483- 150 3.09 551 3.13 122 3.17 511 3.19 566 3.21 124 3.29
 139  0.723  0.300  0.485- 561 3.01 555 3.05 554 3.16 520 3.32 129 3.40 128 3.42
 140  0.725  0.099  0.484- 554 3.06 141 3.07 127 3.19 149 3.27 129 3.33 518 3.35
 141  0.773  0.996  0.519- 140 3.07 541 3.09 152 3.10 590 3.14 547 3.24 586 3.31
 142  0.277  0.898  0.521- 571 3.09 579 3.11 576 3.11 133 3.17 546 3.22 544 3.30
 143  0.283  0.695  0.520- 587 3.01 534 3.08 548 3.14 579 3.21 133 3.30 158 3.31
 144  0.273  0.101  0.519- 577 3.03 550 3.06 573 3.17 546 3.22 576 3.28 131 3.34
 145  0.447  0.404  0.516- 539 3.06 536 3.11 532 3.12 580 3.22 584 3.24 160 3.31
 146  0.606  0.900  0.516- 543 2.98 537 3.05 541 3.15 582 3.24 590 3.33 157 3.41
 147  0.286  0.302  0.517- 532 2.99 584 3.13 573 3.16 550 3.21 549 3.22 153 3.31
 148  0.443  0.200  0.522- 573 3.00 574 3.08 160 3.11 532 3.26 137 3.27 131 3.33
 149  0.608  0.096  0.521- 574 3.03 137 3.13 590 3.14 578 3.14 543 3.22 140 3.27
 150  0.948  0.297  0.520- 572 3.05 154 3.07 138 3.09 135 3.21 159 3.23 132 3.33
 151  0.671  0.597  0.557- 594 3.06 597 3.07 596 3.10 560 3.25 553 3.28 563 3.35
 152  0.834  0.902  0.556- 604 3.09 141 3.10 565 3.14 161 3.25 601 3.29 558 3.32
 153  0.163  0.298  0.553- 566 2.93 551 3.10 595 3.20 164 3.25 147 3.31 163 3.36
 154  0.836  0.301  0.555- 150 3.07 555 3.08 554 3.17 591 3.20 606 3.21 170 3.32
 155  0.998  0.594  0.556- 592 3.04 600 3.12 557 3.13 605 3.24 569 3.26 559 3.33
 156  0.000  0.999  0.552- 567 3.04 565 3.07 568 3.08 166 3.30 165 3.32 604 3.34
 157  0.669  0.798  0.559- 596 3.03 601 3.15 603 3.15 558 3.28 563 3.29 146 3.41
 158  0.160  0.699  0.555- 605 3.08 570 3.13 569 3.16 593 3.20 598 3.25 143 3.31
 159  0.002  0.402  0.558- 592 3.00 606 3.12 595 3.13 150 3.23 557 3.29 551 3.32
 160  0.502  0.302  0.557- 169 3.05 148 3.11 609 3.16 607 3.20 561 3.21 145 3.31
 161  0.893  0.797  0.592- 585 3.02 629 3.14 612 3.18 581 3.21 152 3.25 172 3.25
 162  0.384  0.099  0.590- 576 3.02 573 3.03 574 3.15 175 3.19 176 3.27 180 3.33
 163  0.230  0.406  0.589- 584 2.94 615 3.07 575 3.12 153 3.36 171 3.38 173 3.40
 164  0.218  0.196  0.593- 175 3.07 577 3.11 616 3.12 573 3.24 153 3.25 173 3.33
 165  0.057  0.897  0.593- 628 3.09 619 3.09 571 3.12 585 3.22 612 3.23 156 3.32
 166  0.055  0.100  0.594- 627 3.11 619 3.12 616 3.14 572 3.16 577 3.20 156 3.30
 167  0.553  0.996  0.593- 582 3.10 590 3.11 574 3.15 625 3.18 180 3.18 626 3.23
 168  0.393  0.701  0.593- 579 3.12 618 3.12 589 3.14 613 3.21 630 3.24 587 3.24
 169  0.554  0.402  0.592- 160 3.05 623 3.08 580 3.12 583 3.19 624 3.21 179 3.26
 170  0.714  0.301  0.591- 583 3.00 578 3.04 624 3.04 154 3.32 174 3.35 177 3.40
 171  0.114  0.404  0.631- 633 3.03 639 3.07 592 3.16 647 3.20 595 3.33 163 3.38
 172  0.777  0.800  0.630- 601 3.10 596 3.15 649 3.18 640 3.21 637 3.24 161 3.25
 173  0.284  0.298  0.631- 631 3.02 609 3.07 182 3.15 647 3.26 164 3.33 163 3.40
 174  0.783  0.402  0.630- 606 3.04 594 3.12 634 3.12 641 3.21 645 3.29 170 3.35
 175  0.272  0.099  0.629- 164 3.07 186 3.07 162 3.19 610 3.20 188 3.23 631 3.33
 176  0.445  0.203  0.628- 609 3.01 607 3.06 631 3.23 162 3.27 189 3.28 183 3.37
 177  0.784  0.198  0.631- 636 3.05 591 3.11 641 3.12 650 3.20 602 3.32 170 3.40
 178  0.610  0.701  0.630- 646 3.11 603 3.13 649 3.18 648 3.20 597 3.22 596 3.28
 179  0.612  0.503  0.631- 643 3.08 648 3.12 645 3.15 594 3.26 597 3.26 169 3.26
 180  0.442  0.996  0.631- 644 3.08 188 3.13 599 3.14 167 3.18 183 3.31 162 3.33
 181  0.338  0.601  0.662- 613 3.01 615 3.09 630 3.11 199 3.24 195 3.35 193 3.44
 182  0.340  0.403  0.666- 199 3.05 623 3.09 173 3.15 651 3.20 197 3.23 615 3.27
 183  0.502  0.100  0.670- 668 3.01 661 3.05 662 3.14 626 3.29 180 3.31 176 3.37
 184  0.001  0.999  0.663- 612 3.02 619 3.06 627 3.10 191 3.33 664 3.36 194 3.36
 185  0.667  0.995  0.667- 670 3.06 625 3.12 192 3.17 668 3.20 626 3.25 621 3.26
 186  0.163  0.096  0.665- 619 3.06 175 3.07 616 3.15 664 3.25 657 3.25 198 3.31
 187  0.330  0.801  0.666- 611 3.10 665 3.15 618 3.18 630 3.21 193 3.25 666 3.31
 188  0.332  0.000  0.668- 662 3.09 180 3.13 657 3.15 666 3.19 175 3.23 611 3.31
 189  0.503  0.301  0.669- 658 3.02 661 3.07 624 3.19 651 3.22 176 3.28 623 3.31
 190  0.169  0.900  0.665- 611 3.02 619 3.08 657 3.22 628 3.24 665 3.29 191 3.31
 191  0.056  0.898  0.706- 690 3.05 679 3.12 685 3.14 642 3.28 190 3.31 184 3.33
 192  0.722  0.101  0.702- 206 3.00 636 3.09 185 3.17 650 3.18 683 3.30 207 3.33
 193  0.394  0.707  0.706- 671 2.96 646 3.13 187 3.25 202 3.25 675 3.27 181 3.44
 194  0.884  0.999  0.704- 640 3.02 683 3.08 636 3.10 679 3.29 689 3.30 184 3.36
 195  0.223  0.602  0.704- 681 3.04 633 3.19 635 3.19 676 3.19 675 3.26 181 3.35
 196  0.558  0.596  0.701- 643 3.02 648 3.06 646 3.21 674 3.25 202 3.27 203 3.33
 197  0.226  0.401  0.705- 687 3.12 676 3.15 205 3.20 647 3.23 182 3.23 633 3.24
 198  0.225  0.204  0.702- 647 3.00 631 3.02 687 3.20 208 3.29 678 3.31 186 3.31
 199  0.392  0.500  0.703- 182 3.05 643 3.09 201 3.24 181 3.24 202 3.25 676 3.26
 200  0.893  0.399  0.701- 641 3.02 639 3.06 634 3.16 682 3.25 684 3.29 209 3.40
 201  0.446  0.400  0.743- 698 3.07 691 3.09 700 3.17 199 3.24 651 3.24 658 3.28
 202  0.449  0.599  0.743- 700 3.04 220 3.14 699 3.20 199 3.25 193 3.25 196 3.27
 203  0.614  0.705  0.740- 702 3.05 659 3.11 655 3.14 699 3.23 214 3.32 196 3.33
 204  0.443  0.200  0.739- 651 3.01 662 3.10 661 3.18 691 3.27 704 3.34 213 3.35
 205  0.105  0.396  0.737- 669 3.02 656 3.03 696 3.10 197 3.20 211 3.31 217 3.41
 206  0.775  0.199  0.737- 192 3.00 660 3.07 654 3.14 216 3.22 219 3.33 694 3.34
 207  0.607  0.100  0.743- 704 3.10 694 3.15 661 3.17 710 3.19 668 3.23 192 3.33
 208  0.277  0.095  0.740- 657 3.01 662 3.08 212 3.23 697 3.26 198 3.29 213 3.31
 209  0.956  0.502  0.742- 701 2.98 696 3.03 656 3.07 667 3.31 218 3.35 200 3.40
 210  0.613  0.901  0.740- 670 3.07 668 3.14 702 3.19 659 3.22 710 3.23 693 3.28
 211  0.164  0.299  0.780- 718 3.05 721 3.13 687 3.22 678 3.23 713 3.28 205 3.31
 212  0.336  0.999  0.781- 719 3.00 730 3.07 724 3.15 208 3.23 688 3.29 677 3.38
 213  0.328  0.202  0.780- 721 2.97 687 3.12 226 3.20 724 3.29 208 3.31 204 3.35
 214  0.667  0.593  0.778- 726 3.00 674 3.03 725 3.17 228 3.26 673 3.30 203 3.32
 215  0.995  1.000  0.777- 689 3.08 679 3.11 712 3.14 685 3.21 723 3.27 715 3.27
 216  0.836  0.301  0.774- 682 2.94 684 3.06 227 3.19 206 3.22 229 3.41 224 3.42
 217  0.173  0.500  0.777- 676 2.98 727 3.09 713 3.22 222 3.22 681 3.26 205 3.41
 218  0.828  0.502  0.776- 673 3.05 726 3.06 684 3.18 717 3.23 227 3.23 209 3.35
 219  0.830  0.096  0.779- 683 3.09 712 3.11 722 3.14 229 3.24 689 3.24 206 3.33
 220  0.334  0.597  0.778- 676 3.03 727 3.10 202 3.14 720 3.17 675 3.23 225 3.32
 221  0.889  0.795  0.814- 748 3.05 708 3.12 707 3.20 750 3.22 706 3.28 236 3.37
 222  0.061  0.500  0.817- 743 2.99 740 3.05 233 3.22 217 3.22 701 3.29 696 3.33
 223  0.555  0.397  0.813- 691 2.98 700 3.11 734 3.13 749 3.23 703 3.30 238 3.42
 224  0.719  0.296  0.816- 694 3.05 749 3.09 733 3.10 703 3.25 738 3.32 216 3.42
 225  0.393  0.709  0.813- 709 3.00 699 3.01 742 3.17 235 3.28 220 3.32 237 3.33
 226  0.388  0.307  0.816- 734 3.02 698 3.08 213 3.20 736 3.21 691 3.27 239 3.27
 227  0.887  0.400  0.814- 233 3.03 696 3.17 216 3.19 218 3.23 738 3.27 234 3.32
 228  0.721  0.704  0.814- 702 3.00 746 3.13 708 3.19 750 3.25 214 3.26 232 3.35
 229  0.888  0.197  0.818- 741 3.03 234 3.10 733 3.12 219 3.24 695 3.35 216 3.41
 230  0.721  0.901  0.813- 710 2.98 702 3.11 706 3.17 737 3.26 744 3.31 750 3.33
 231  0.109  0.999  0.849- 715 3.03 723 3.04 730 3.12 755 3.29 751 3.33 241 3.37
 232  0.780  0.598  0.853- 764 3.07 770 3.09 769 3.12 726 3.25 717 3.29 228 3.35
 233  0.938  0.499  0.849- 227 3.03 717 3.06 770 3.12 222 3.22 244 3.31 250 3.38
 234  0.946  0.296  0.853- 767 3.01 229 3.10 718 3.17 759 3.21 250 3.22 227 3.32
 235  0.274  0.701  0.850- 727 3.06 714 3.08 249 3.19 225 3.28 756 3.34 248 3.36
 236  0.945  0.907  0.852- 755 3.00 712 3.05 723 3.22 762 3.23 245 3.34 221 3.37
 237  0.448  0.595  0.850- 725 3.00 720 3.00 753 3.21 242 3.27 225 3.33 248 3.38
 238  0.618  0.503  0.854- 764 2.99 758 3.09 726 3.17 725 3.28 753 3.30 223 3.42
 239  0.442  0.198  0.853- 724 3.01 760 3.07 752 3.08 226 3.27 728 3.31 246 3.36
 240  0.275  0.898  0.850- 714 3.08 247 3.17 730 3.20 751 3.20 719 3.21 756 3.27
 241  0.173  0.100  0.890- 745 3.05 776 3.07 778 3.09 731 3.28 258 3.36 231 3.37
 242  0.501  0.706  0.887- 742 2.98 746 3.10 773 3.20 259 3.25 237 3.27 771 3.28
 243  0.337  0.403  0.886- 734 3.04 739 3.09 790 3.16 736 3.16 251 3.32 256 3.39
 244  0.004  0.602  0.887- 743 3.06 784 3.12 748 3.14 777 3.26 233 3.31 260 3.36
 245  0.002  0.798  0.891- 784 3.01 781 3.14 774 3.14 732 3.26 748 3.31 236 3.34
 246  0.507  0.306  0.891- 789 2.98 749 3.04 785 3.11 734 3.22 239 3.36 251 3.37
 247  0.336  0.997  0.887- 735 3.08 780 3.10 240 3.17 745 3.20 255 3.23 778 3.29
 248  0.335  0.603  0.893- 771 3.02 790 3.04 772 3.06 739 3.33 235 3.36 237 3.38
 249  0.167  0.700  0.891- 772 3.10 775 3.11 784 3.11 235 3.19 743 3.24 732 3.31
 250  0.002  0.399  0.891- 777 3.04 786 3.07 779 3.12 234 3.22 740 3.30 233 3.38
 251  0.383  0.296  0.928- 807 3.02 794 3.06 760 3.12 267 3.25 243 3.32 246 3.37
 252  0.722  0.103  0.926- 765 3.12 761 3.16 798 3.16 763 3.19 797 3.24 266 3.24
 253  0.890  0.203  0.928- 804 3.05 802 3.09 798 3.15 767 3.24 759 3.25 761 3.33
 254  0.726  0.504  0.926- 808 3.07 770 3.09 764 3.20 758 3.25 270 3.29 263 3.30
 255  0.391  0.103  0.924- 760 3.04 752 3.06 794 3.10 247 3.23 265 3.29 264 3.32
 256  0.216  0.401  0.925- 792 3.03 766 3.07 768 3.14 801 3.22 807 3.28 243 3.39
 257  0.558  0.005  0.925- 752 3.06 763 3.08 757 3.15 797 3.19 800 3.29 264 3.37
 258  0.053  0.102  0.929- 802 3.04 806 3.05 805 3.14 767 3.19 755 3.26 241 3.36
 259  0.556  0.600  0.925- 753 3.03 796 3.14 764 3.17 799 3.22 242 3.25 263 3.36
 260  0.888  0.602  0.929- 793 3.05 808 3.06 268 3.08 769 3.26 770 3.31 244 3.36
 261  0.110  0.800  0.962- 784 3.11 775 3.14 781 3.15 275 3.20 277 3.21 286 3.30
 262  0.112  0.601  0.961- 772 3.06 784 3.10 777 3.12 275 3.18 287 3.26   7 3.33
 263  0.612  0.496  0.966- 283 2.97 284 3.05 789 3.16 280 3.24 254 3.30 259 3.36
 264  0.444  0.002  0.967- 278 3.01 290 3.05 282 3.08 255 3.32 780 3.36 257 3.37
 265  0.276  0.102  0.964- 273 3.03 285 3.12 776 3.18 278 3.18 778 3.29 255 3.29
 266  0.777  0.996  0.962- 783 3.06 271 3.10   9 3.11 788 3.21 252 3.24   4 3.34
 267  0.442  0.404  0.963- 790 3.07 276 3.10 284 3.18 789 3.18 251 3.25   2 3.31
 268  0.945  0.497  0.961- 786 3.05 260 3.08 777 3.13   1 3.15   7 3.28   5 3.35
 269  0.942  0.898  0.962- 774 3.09 277 3.10   6 3.18 271 3.18 788 3.19 781 3.22
 270  0.781  0.394  0.963- 281 3.02 782 3.07 786 3.13 254 3.29 283 3.29   5 3.34
 271  0.832  0.901  0.001-  17 3.00 303 3.06 266 3.10 305 3.15 269 3.18 791 3.20
 272  0.665  0.802  0.997- 800 2.97 799 3.04  20 3.07 791 3.13  17 3.16 310 3.34
 273  0.332  0.201  0.998- 807 3.01 265 3.03 794 3.09  11 3.12 298 3.24  13 3.28
 274  0.668  0.201  0.998- 810 3.01 798 3.02 797 3.02 292 3.20 301 3.21 304 3.24
 275  0.168  0.699  1.000-  16 2.98 299 3.05 803 3.13 262 3.18 261 3.20  19 3.25
 276  0.332  0.402  0.999- 801 3.04 267 3.10 807 3.11 300 3.14 307 3.17  11 3.22
 277  0.996  0.802  1.000- 305 3.06 793 3.09  12 3.10 269 3.10  19 3.16 261 3.21
 278  0.333  0.996  1.000- 264 3.01 795 3.06 297 3.07 265 3.18 295 3.21  13 3.23
 279  0.833  0.705  1.000- 305 3.04 791 3.05 793 3.09 310 3.14 808 3.18 306 3.22
 280  0.667  0.607  0.001- 799 3.00 310 3.02 302 3.05 808 3.16 263 3.24 308 3.27
 281  0.833  0.301  0.000- 270 3.02 301 3.07 798 3.09 291 3.19 294 3.19 804 3.19
 282  0.501  0.898  0.999-  20 3.03 809 3.07 800 3.07 264 3.08 297 3.19  15 3.21
 283  0.664  0.401  0.001- 263 2.97 296 2.99 810 3.13 308 3.14 301 3.25 270 3.29
 284  0.501  0.504  0.000- 302 3.03 796 3.03 263 3.05 300 3.12 267 3.18 296 3.25
 285  0.166  0.099  0.001-  14 2.99 298 3.10 265 3.12 295 3.12 806 3.15 805 3.19
 286  0.168  0.906  0.000- 295 2.99  12 3.01 805 3.06  16 3.12 795 3.25 261 3.30
 287  0.169  0.499  0.001- 307 2.97 299 3.04 801 3.05 309 3.22 792 3.24 262 3.26
 288  0.999  0.203  0.000- 804 3.06 291 3.09 293 3.13 806 3.13 802 3.18  14 3.18
 289  0.334  0.801  0.999-  16 3.01 795 3.10 803 3.10  18 3.12 297 3.16 809 3.23
 290  0.502  0.102  0.000- 797 3.03 264 3.05  15 3.05 304 3.13 794 3.17  13 3.28
 291  0.891  0.199  0.037-   4 3.04  23 3.07 288 3.09 312 3.14 313 3.16 281 3.19
 292  0.718  0.103  0.039- 316 2.99 313 3.00  21 3.03 274 3.20   9 3.23   4 3.26
 293  0.050  0.300  0.039- 312 2.97 322 3.06 315 3.06 288 3.13   1 3.17  10 3.28
 294  0.888  0.400  0.039- 312 2.98 327 3.02 314 3.06 281 3.19   5 3.23   1 3.25
 295  0.219  0.998  0.037- 286 2.99 330 3.06 329 3.10 285 3.12 278 3.21 328 3.27
 296  0.560  0.399  0.038- 283 2.99 317 3.00 320 3.01 318 3.17   2 3.25 284 3.25
 297  0.387  0.901  0.037- 329 3.06 278 3.07  22 3.14 326 3.15 289 3.16 282 3.19
 298  0.219  0.198  0.038- 322 3.03  10 3.08 285 3.10 328 3.11  27 3.12 273 3.24
 299  0.216  0.601  0.036- 311 2.98 287 3.04 275 3.05  30 3.14 324 3.23   3 3.36
 300  0.391  0.497  0.037- 318 3.03  30 3.04  29 3.11 284 3.12 276 3.14   3 3.31
 301  0.727  0.298  0.038- 313 2.96 327 3.06 281 3.07 317 3.12 274 3.21 283 3.25
 302  0.559  0.597  0.036- 320 2.98 284 3.03 280 3.05  29 3.19  25 3.27   8 3.33
 303  0.887  0.999  0.036-  26 3.04 271 3.06   6 3.09  21 3.12   4 3.15  23 3.26
 304  0.556  0.199  0.038- 323 3.02 317 3.06 316 3.06   2 3.13 290 3.13 274 3.24
 305  0.889  0.799  0.036- 325 3.04 279 3.04 277 3.06 271 3.15 319 3.17  26 3.20
 306  0.886  0.603  0.039- 321 3.03 314 3.04 325 3.09   5 3.09   7 3.14 279 3.22
 307  0.219  0.403  0.036- 287 2.97 315 3.07  10 3.10  30 3.13 276 3.17  27 3.27
 308  0.724  0.498  0.038- 327 2.98   5 3.01 321 3.11 283 3.14 320 3.15 280 3.27
 309  0.055  0.503  0.039- 311 2.99 314 3.02 315 3.04   7 3.17 287 3.22   1 3.28
 310  0.724  0.698  0.038- 321 2.96 280 3.02  25 3.08 279 3.14 319 3.15 272 3.34
 311  0.112  0.600  0.072- 299 2.98 309 2.99  37 3.08  19 3.14 332 3.29  35 3.30
 312  0.943  0.304  0.073- 293 2.97 294 2.98 331 3.06 291 3.14  38 3.27 339 3.28
 313  0.776  0.200  0.072- 301 2.96 292 3.00 348 3.08 291 3.16  38 3.26  33 3.29
 314  0.943  0.503  0.072- 309 3.02 306 3.04 294 3.06 331 3.17 332 3.18 338 3.23
 315  0.110  0.401  0.072- 309 3.04 293 3.06 307 3.07 345 3.17 331 3.23  37 3.23
 316  0.612  0.103  0.075- 292 2.99 348 3.04 304 3.06 350 3.16 346 3.18  15 3.21
 317  0.612  0.301  0.072- 296 3.00 304 3.06  40 3.09 301 3.12  34 3.16 348 3.24
 318  0.444  0.402  0.073-  32 2.99 300 3.03 334 3.07  40 3.16 296 3.17  11 3.22
 319  0.777  0.803  0.074-  17 3.00 342 3.11 347 3.14 310 3.15 305 3.17 337 3.21
 320  0.607  0.500  0.072- 302 2.98 296 3.01 334 3.05 308 3.15  39 3.24  34 3.34
 321  0.776  0.604  0.073- 310 2.96 306 3.03 337 3.11 308 3.11  39 3.26 338 3.32
 322  0.112  0.203  0.073- 298 3.03 345 3.03 293 3.06 343 3.10  14 3.19 339 3.30
 323  0.448  0.200  0.073-  40 3.01 304 3.02  11 3.14 346 3.15  13 3.15 336 3.25
 324  0.280  0.699  0.074-  18 2.98 335 2.99 340 3.05 299 3.23  35 3.27  16 3.29
 325  0.941  0.705  0.074- 305 3.04 306 3.09  19 3.12 344 3.12 337 3.16 332 3.22
 326  0.444  0.001  0.074-  13 3.08 349 3.09 346 3.10  15 3.14 297 3.15 341 3.19
 327  0.777  0.401  0.072- 308 2.98 294 3.02 301 3.06 338 3.14  34 3.16  38 3.35
 328  0.278  0.104  0.075- 336 2.99  13 3.06 349 3.06 298 3.11 343 3.17 295 3.27
 329  0.280  0.903  0.073- 349 2.97 297 3.06 295 3.10 340 3.11  36 3.17  16 3.36
 330  0.112  0.001  0.074- 343 3.04 295 3.06  36 3.10  14 3.14  12 3.23 333 3.28
 331  0.996  0.400  0.110- 361 3.03 312 3.06  41 3.09 355 3.17 314 3.17 315 3.23
 332  0.997  0.602  0.112- 364 2.98 355 3.01 353 3.06 314 3.18 325 3.22 311 3.29
 333  0.998  0.002  0.114- 362 2.99 359 3.03 351 3.03  26 3.22  23 3.23 330 3.28
 334  0.501  0.499  0.109-  29 3.00 320 3.05 318 3.07 367 3.16  46 3.23  50 3.28
 335  0.332  0.606  0.111- 324 2.99 352 3.04 365 3.06  29 3.20  50 3.25  30 3.26
 336  0.331  0.199  0.110- 328 2.99 360 3.05  45 3.06  27 3.10 323 3.25  42 3.28
 337  0.830  0.699  0.111- 364 2.98 370 3.03 321 3.11 369 3.15 325 3.16 319 3.21
 338  0.832  0.496  0.112- 361 2.96 354 3.06 364 3.09 327 3.14 314 3.23 321 3.32
 339  0.996  0.198  0.113- 362 2.96 368 3.03  23 3.06  41 3.15 312 3.28 322 3.30
 340  0.331  0.800  0.110- 324 3.05  22 3.05 329 3.11 352 3.15 358 3.17  44 3.21
 341  0.499  0.901  0.113- 366 3.04  28 3.05 363 3.07  44 3.09  22 3.13 326 3.19
 342  0.833  0.900  0.111- 369 3.02  43 3.08 359 3.09  26 3.10 319 3.11  21 3.25
 343  0.161  0.101  0.109- 362 3.01 330 3.04 322 3.10  47 3.14 360 3.17 328 3.17
 344  0.997  0.801  0.112- 353 3.02 369 3.03 351 3.09 325 3.12  24 3.21  26 3.25
 345  0.166  0.299  0.109- 322 3.03  27 3.07  41 3.08 360 3.08 315 3.17  49 3.26
 346  0.498  0.099  0.111-  45 3.01 363 3.07 326 3.10 323 3.15  48 3.18 316 3.18
 347  0.667  0.799  0.111-  25 3.05  28 3.09 370 3.11 319 3.14  43 3.14 366 3.17
 348  0.670  0.199  0.110- 356 3.04 316 3.04 313 3.08 357 3.17  48 3.20 317 3.24
 349  0.330  0.999  0.108- 329 2.97 328 3.06 326 3.09  44 3.12  47 3.17  45 3.25
 350  0.661  0.002  0.114- 363 2.98  43 3.05  28 3.05 356 3.13 316 3.16  21 3.32
 351  0.053  0.901  0.147- 333 3.03 388 3.04 344 3.09  54 3.10 379 3.18  36 3.19
 352  0.387  0.701  0.147-  31 3.03 335 3.04 381 3.14 340 3.15 377 3.17 373 3.25
 353  0.051  0.702  0.146- 344 3.02 332 3.06  35 3.07  53 3.11  57 3.12 379 3.21
 354  0.724  0.501  0.148- 378 3.00  39 3.05 338 3.06 376 3.15 380 3.19  34 3.21
 355  0.054  0.504  0.145-  37 2.99  53 3.01 332 3.01 331 3.17  51 3.26 387 3.33
 356  0.721  0.104  0.148-  33 2.96 348 3.04 350 3.13 372 3.13 382 3.22  55 3.29
 357  0.720  0.300  0.149-  34 3.06  38 3.09 376 3.10 371 3.12 348 3.17 372 3.18
 358  0.223  0.802  0.149- 379 3.08  35 3.10 377 3.11 384 3.12 340 3.17  36 3.20
 359  0.888  0.996  0.148- 333 3.03 388 3.07 342 3.09  33 3.13  58 3.18 382 3.21
 360  0.221  0.202  0.145-  59 3.04 336 3.05 345 3.08 343 3.17  52 3.19 374 3.30
 361  0.889  0.403  0.145- 338 2.96 331 3.03  38 3.08  51 3.10 376 3.29  56 3.35
 362  0.054  0.103  0.145- 339 2.96 333 2.99 343 3.01 374 3.28  58 3.31  54 3.35
 363  0.553  0.002  0.147- 350 2.98 346 3.07 341 3.07 389 3.19  55 3.21 386 3.26
 364  0.887  0.602  0.144- 332 2.98 337 2.98  57 3.06 338 3.09 378 3.31  51 3.33
 365  0.225  0.600  0.148- 385 3.05 335 3.06 377 3.10  37 3.17  53 3.17  35 3.19
 366  0.555  0.805  0.148- 341 3.04  31 3.09 389 3.13 373 3.13 347 3.17  60 3.24
 367  0.555  0.598  0.148-  31 3.03  39 3.04  60 3.15 334 3.16 380 3.20 381 3.23
 368  0.889  0.199  0.148- 339 3.03  38 3.04  33 3.05  58 3.16  56 3.20 372 3.26
 369  0.887  0.803  0.146- 342 3.02 344 3.03 388 3.06 337 3.15  57 3.16 375 3.23
 370  0.725  0.703  0.148- 375 2.99 337 3.03 347 3.11 378 3.13  39 3.22  60 3.27
 371  0.613  0.297  0.187- 395 2.98 405 3.03 403 3.08 357 3.12  48 3.18  46 3.25
 372  0.775  0.199  0.187- 395 2.97 406 3.09 401 3.11 356 3.13 357 3.18 368 3.26
 373  0.446  0.802  0.186- 400 2.98 393 3.03 366 3.13 399 3.13 352 3.25  44 3.30
 374  0.109  0.202  0.187- 408 2.98  63 3.03 394 3.04 362 3.28  41 3.29 360 3.30
 375  0.774  0.797  0.185- 370 2.99 409 2.99 391 3.05 369 3.23  70 3.25  43 3.26
 376  0.776  0.399  0.186- 405 2.96 406 3.06 357 3.10 404 3.11 354 3.15 361 3.29
 377  0.276  0.700  0.185-  69 3.01 392 3.07 365 3.10 399 3.11 358 3.11 352 3.17
 378  0.773  0.597  0.184- 397 2.98 354 3.00 404 3.09 370 3.13 409 3.20 364 3.31
 379  0.112  0.800  0.184-  69 3.03 407 3.04 358 3.08  66 3.15 351 3.18 353 3.21
 380  0.612  0.498  0.186-  46 3.02 405 3.02  65 3.07 397 3.11 354 3.19 367 3.20
 381  0.440  0.602  0.185- 392 3.01  50 3.05 400 3.14 352 3.14  65 3.16 367 3.23
 382  0.777  0.004  0.187-  70 3.00 401 3.01 402 3.03 359 3.21 356 3.22  43 3.27
 383  0.447  0.399  0.186-  46 3.00 403 3.03  65 3.09  42 3.10  64 3.19  50 3.20
 384  0.275  0.900  0.187- 407 2.97 399 2.97 396 3.06 358 3.12  44 3.25  47 3.30
 385  0.276  0.501  0.184- 365 3.05  49 3.07  50 3.08  68 3.13 392 3.14  64 3.19
 386  0.442  0.001  0.188- 393 2.95 410 2.99 396 3.00  44 3.25 363 3.26  45 3.32
 387  0.109  0.401  0.187- 408 2.98  68 3.02 398 3.03  41 3.23  49 3.25 355 3.33
 388  0.945  0.897  0.183- 351 3.04 369 3.06 359 3.07  66 3.09  70 3.18  62 3.28
 389  0.608  0.903  0.187- 393 2.97 391 3.05 402 3.11 366 3.13 363 3.19  43 3.32
 390  0.447  0.202  0.187- 403 3.01 410 3.03  67 3.05  42 3.18  48 3.19  45 3.29
 391  0.667  0.805  0.221- 375 3.05 389 3.05 425 3.07 422 3.18 424 3.20  60 3.23
 392  0.332  0.601  0.220-  73 3.00 381 3.01 377 3.07 385 3.14 420 3.28 428 3.31
 393  0.499  0.903  0.220- 386 2.95 389 2.97 373 3.03 421 3.23 413 3.24 424 3.26
 394  0.001  0.199  0.223-  78 3.02 374 3.04  56 3.11 427 3.13  58 3.18  75 3.25
 395  0.670  0.204  0.222- 372 2.97 371 2.98 414 3.13  55 3.17 418 3.28 429 3.29
 396  0.332  0.001  0.221- 386 3.00 384 3.06 421 3.11  52 3.14 416 3.22 419 3.25
 397  0.669  0.600  0.220- 378 2.98  60 3.08 422 3.08 380 3.11  74 3.12  72 3.32
 398  0.001  0.404  0.222- 387 3.03  51 3.08  78 3.12 415 3.14  56 3.15  71 3.19
 399  0.331  0.803  0.220- 384 2.97 430 3.08 421 3.10 377 3.11 373 3.13  73 3.23
 400  0.498  0.704  0.221- 373 2.98  60 3.07 424 3.10  73 3.13 381 3.14  72 3.34
 401  0.834  0.099  0.222- 382 3.01  58 3.04 372 3.11 412 3.12  75 3.19 418 3.25
 402  0.668  0.003  0.222- 382 3.03  55 3.05 389 3.11 418 3.13 425 3.16 413 3.19
 403  0.500  0.302  0.221- 390 3.01 383 3.03 371 3.08 411 3.10 426 3.26 429 3.27
 404  0.831  0.501  0.221-  74 3.08 378 3.09  51 3.09  71 3.11 376 3.11  77 3.17
 405  0.669  0.399  0.219- 376 2.96 380 3.02 371 3.03  74 3.15 414 3.27 426 3.36
 406  0.832  0.301  0.221-  56 2.97 376 3.06 372 3.09  75 3.13  71 3.15 414 3.27
 407  0.166  0.897  0.220- 384 2.97 379 3.04  54 3.05 430 3.19  76 3.27 419 3.32
 408  0.164  0.302  0.219- 387 2.98 374 2.98  78 3.08  59 3.12 423 3.29 417 3.34
 409  0.830  0.703  0.220-  80 2.98 375 2.99 422 3.13  57 3.15 378 3.20  77 3.28
 410  0.494  0.100  0.222- 386 2.99 390 3.03  55 3.08 416 3.09 429 3.25 413 3.27
 411  0.393  0.300  0.259- 440 2.98 441 3.03 403 3.10  67 3.16  89 3.16  64 3.22
 412  0.885  0.999  0.259-  70 3.07  62 3.10 439 3.11 401 3.12  87 3.18  86 3.23
 413  0.557  0.000  0.261- 433 2.96 434 3.05  88 3.05 402 3.19 393 3.24 410 3.27
 414  0.720  0.300  0.262- 445 2.99 446 2.99 432 3.07 395 3.13 406 3.27 405 3.27
 415  0.053  0.499  0.262- 437 3.01  84 3.07  61 3.08 447 3.10 398 3.14  68 3.31
 416  0.387  0.104  0.259- 448 3.04 440 3.05  88 3.06 410 3.09  67 3.11 396 3.22
 417  0.221  0.199  0.261- 448 2.97 442 3.02  63 3.08  89 3.10  67 3.29 408 3.34
 418  0.721  0.097  0.262- 434 2.96 439 3.00 446 3.12 402 3.13 401 3.25 395 3.28
 419  0.221  1.000  0.261- 431 2.94 448 2.97 444 3.04 396 3.25  63 3.31 407 3.32
 420  0.389  0.501  0.261- 441 2.99 443 3.03 449 3.06  64 3.15  65 3.26 392 3.28
 421  0.385  0.901  0.258- 431 3.00  88 3.09 399 3.10 396 3.11  83 3.12 393 3.23
 422  0.720  0.700  0.257- 450 3.06  81 3.08 397 3.08  90 3.09 409 3.13 391 3.18
 423  0.222  0.403  0.259- 443 3.01  84 3.04  68 3.07  89 3.12  64 3.12 408 3.29
 424  0.554  0.799  0.259- 450 2.99  83 3.06 400 3.10 433 3.13 391 3.20 393 3.26
 425  0.717  0.900  0.260- 433 2.98  90 3.02 391 3.07 439 3.16 402 3.16  70 3.30
 426  0.555  0.402  0.262- 441 2.95 435 3.04 445 3.04  65 3.24 403 3.26 405 3.36
 427  0.057  0.103  0.261- 442 3.02  63 3.08 444 3.11  87 3.11 394 3.13  62 3.25
 428  0.223  0.601  0.263- 443 2.94 436 2.97 447 2.98 392 3.31  68 3.36  69 3.41
 429  0.554  0.199  0.261- 440 2.95 445 2.98 434 2.99 410 3.25 403 3.27 395 3.29
 430  0.227  0.801  0.259- 431 3.00 399 3.08 436 3.09 407 3.19  85 3.23  69 3.27
 431  0.278  0.902  0.293- 419 2.94 421 3.00 430 3.00 451 3.26 461 3.31 463 3.37
 432  0.777  0.400  0.296-  96 3.00 414 3.07 454 3.13  71 3.13  74 3.20  91 3.21
 433  0.609  0.902  0.294- 413 2.96 425 2.98 457 3.06 424 3.13 458 3.27 452 3.37
 434  0.612  0.102  0.294- 418 2.96 429 2.99 413 3.05 456 3.19 457 3.28  92 3.35
 435  0.609  0.501  0.297- 467 3.01 426 3.04  96 3.06  72 3.08 453 3.22  74 3.28
 436  0.276  0.700  0.296- 428 2.97 430 3.09 100 3.12  73 3.17 469 3.18 463 3.29
 437  0.946  0.501  0.297- 415 3.01  95 3.04 462 3.06  77 3.19  71 3.23  91 3.30
 438  0.946  0.698  0.299- 462 2.99 459 3.06  79 3.11  93 3.13  77 3.24  80 3.31
 439  0.775  0.000  0.296- 418 3.00 412 3.11  94 3.12 425 3.16 457 3.16  98 3.22
 440  0.445  0.202  0.293- 429 2.95 411 2.98 416 3.05 464 3.25 460 3.35  92 3.39
 441  0.445  0.401  0.293- 426 2.95 420 2.99 411 3.03 467 3.16 470 3.37 464 3.38
 442  0.113  0.200  0.296-  97 3.00 427 3.02 417 3.02 455 3.22  78 3.23 466 3.26
 443  0.277  0.501  0.294- 428 2.94 423 3.01 420 3.03 465 3.16 100 3.28 470 3.40
 444  0.111  0.999  0.296- 419 3.04  76 3.04 427 3.11 451 3.17 468 3.18  97 3.21
 445  0.609  0.298  0.294- 429 2.98 414 2.99 426 3.04 456 3.13  96 3.27 464 3.28
 446  0.775  0.203  0.295- 414 2.99  75 3.06 418 3.12 454 3.12 456 3.18  94 3.28
 447  0.114  0.599  0.296- 428 2.98  79 3.02 415 3.10 469 3.20 465 3.24 462 3.28
 448  0.276  0.100  0.293- 419 2.97 417 2.97 416 3.04  97 3.16 460 3.36 461 3.39
 449  0.444  0.597  0.297- 467 3.00 420 3.06 100 3.09  72 3.11  99 3.22  73 3.24
 450  0.611  0.705  0.293-  72 2.96 424 2.99 422 3.06  99 3.21 452 3.29 453 3.30
 451  0.168  0.900  0.334- 105 3.00 101 3.06 473 3.07  85 3.12 444 3.17 431 3.26
 452  0.667  0.801  0.337- 476 2.95 475 3.00 479 3.05  90 3.23 450 3.29 433 3.37
 453  0.665  0.603  0.335- 109 3.03 489 3.03 476 3.05  81 3.17 435 3.22 450 3.30
 454  0.832  0.299  0.333-  82 3.06 488 3.08 483 3.11 446 3.12 432 3.13 471 3.20
 455  0.000  0.200  0.335- 488 3.03 108 3.08  82 3.08 103 3.09  87 3.20 442 3.22
 456  0.663  0.203  0.333- 490 3.03 483 3.09 445 3.13 102 3.18 446 3.18 434 3.19
 457  0.663  0.993  0.333- 475 2.99 433 3.06 485 3.11 439 3.16 102 3.21 434 3.28
 458  0.499  0.899  0.335- 479 2.95 480 2.97 485 3.02  83 3.22 433 3.27  88 3.37
 459  0.001  0.797  0.334- 438 3.06 104 3.09  85 3.14  86 3.15 478 3.15 105 3.16
 460  0.334  0.198  0.337- 474 2.94 484 2.96 482 2.97 440 3.35  89 3.36 448 3.36
 461  0.335  0.998  0.336- 480 2.94 101 2.99 484 3.04  88 3.29 431 3.31 448 3.39
 462  0.996  0.600  0.334- 438 2.99 486 3.00 437 3.06 478 3.22 447 3.28 107 3.32
 463  0.333  0.801  0.336- 487 2.96 473 2.97 480 2.97 436 3.29  83 3.32 431 3.37
 464  0.499  0.297  0.336- 490 2.98 474 3.00 110 3.03 440 3.25 445 3.28 441 3.38
 465  0.172  0.498  0.335- 472 3.00 481 3.09  84 3.13 443 3.16 107 3.16 447 3.24
 466  0.173  0.299  0.335- 482 2.97 472 2.99 108 3.09  89 3.17 442 3.26  84 3.30
 467  0.500  0.500  0.331- 449 3.00 435 3.01 109 3.07 441 3.16 106 3.25 110 3.27
 468  0.999  1.000  0.333-  87 2.99 103 3.03  86 3.12 477 3.13 444 3.18 105 3.23
 469  0.169  0.697  0.336- 473 3.01 478 3.07 481 3.10  85 3.14 436 3.18 447 3.20
 470  0.334  0.398  0.337- 474 2.95 106 2.96 472 2.97  89 3.28 441 3.37 443 3.40
 471  0.889  0.400  0.371-  95 3.07 493 3.09  91 3.10 498 3.11 491 3.12 454 3.20
 472  0.224  0.399  0.369- 470 2.97 466 2.99 465 3.00 507 3.28 494 3.28 492 3.29
 473  0.223  0.799  0.368- 463 2.97 469 3.01 451 3.07 115 3.13 118 3.28 509 3.29
 474  0.388  0.297  0.368- 460 2.94 470 2.95 464 3.00 494 3.21 111 3.31 508 3.34
 475  0.718  0.902  0.369- 457 2.99 452 3.00 503 3.11  98 3.11 506 3.19 500 3.34
 476  0.717  0.703  0.370- 452 2.95 453 3.05 496 3.09 500 3.18  93 3.20 112 3.30
 477  0.888  0.997  0.370-  98 3.04 120 3.09 116 3.11 468 3.13  94 3.13 506 3.17
 478  0.059  0.699  0.371- 502 3.05 509 3.05 469 3.07 459 3.15 462 3.22 497 3.23
 479  0.552  0.802  0.368- 458 2.95  99 3.03 452 3.05 510 3.17 503 3.26 496 3.34
 480  0.390  0.901  0.367- 461 2.94 458 2.97 463 2.97 504 3.29 118 3.30 510 3.35
 481  0.222  0.596  0.372- 115 3.08 502 3.08 465 3.09 469 3.10 492 3.12 100 3.23
 482  0.226  0.202  0.370- 466 2.97 460 2.97  97 3.15 494 3.21 117 3.28 113 3.31
 483  0.722  0.298  0.370- 499 2.99 501 3.07 456 3.09 498 3.10 454 3.11  96 3.26
 484  0.387  0.100  0.370- 460 2.96 461 3.04  92 3.05 111 3.17 113 3.19 504 3.31
 485  0.553  0.998  0.369-  92 3.01 458 3.02 457 3.11 504 3.17 505 3.22 503 3.26
 486  0.892  0.601  0.370- 462 3.00  93 3.09 497 3.13  91 3.13 491 3.16 112 3.29
 487  0.387  0.705  0.369- 463 2.96 115 3.02 100 3.10  99 3.17 510 3.18 114 3.41
 488  0.890  0.202  0.369- 455 3.03 454 3.08 493 3.10 499 3.16  94 3.19 116 3.19
 489  0.718  0.503  0.369-  91 3.02 453 3.03  96 3.10 112 3.15 498 3.22 495 3.23
 490  0.556  0.201  0.369- 464 2.98  92 3.02 456 3.03 501 3.19 111 3.24 505 3.30
 491  0.945  0.499  0.408- 511 3.05 121 3.09 471 3.12 512 3.13 486 3.16 107 3.17
 492  0.279  0.501  0.410- 530 3.00 519 3.01 481 3.12 514 3.14 106 3.21 472 3.29
 493  0.944  0.299  0.406- 128 3.01 471 3.09 488 3.10 511 3.13 122 3.15 108 3.21
 494  0.282  0.299  0.410- 527 3.02 124 3.05 514 3.06 482 3.21 474 3.21 472 3.28
 495  0.609  0.501  0.410- 529 2.96 520 3.01 526 3.02 109 3.23 489 3.23 110 3.31
 496  0.612  0.699  0.409- 529 2.96 517 2.98 476 3.09 525 3.10 109 3.33 479 3.34
 497  0.944  0.699  0.409- 104 3.04 522 3.05 516 3.12 486 3.13 512 3.14 478 3.23
 498  0.776  0.398  0.406- 128 2.99 520 3.08 483 3.10 471 3.11 489 3.22 121 3.23
 499  0.775  0.201  0.404- 483 2.99 128 3.04 129 3.05 102 3.13 488 3.16 127 3.25
 500  0.775  0.797  0.410- 517 2.97 522 2.99 123 3.07 476 3.18 104 3.32 475 3.34
 501  0.614  0.302  0.406- 110 3.06 483 3.07 520 3.07 129 3.10 126 3.15 490 3.19
 502  0.111  0.601  0.408- 478 3.05 107 3.08 481 3.08 130 3.11 512 3.11 530 3.21
 503  0.614  0.898  0.409- 518 2.97 517 2.98 475 3.11 523 3.16 485 3.26 479 3.26
 504  0.447  0.998  0.410- 523 2.95 528 2.98 524 3.13 485 3.17 480 3.29 484 3.31
 505  0.612  0.096  0.409- 518 2.98 129 3.01 528 3.09 102 3.12 485 3.22 490 3.30
 506  0.776  0.000  0.408- 123 3.05 127 3.05 518 3.11 477 3.17 475 3.19 102 3.19
 507  0.111  0.403  0.410- 511 3.00 107 3.03 530 3.05 124 3.17 472 3.28 108 3.29
 508  0.445  0.399  0.410- 526 2.98 514 3.02 106 3.08 126 3.09 110 3.16 474 3.34
 509  0.110  0.796  0.408- 516 3.03 478 3.05 130 3.08 105 3.15 515 3.23 473 3.29
 510  0.447  0.798  0.409- 525 2.96 125 3.08 523 3.10 479 3.17 487 3.18 480 3.35
 511  0.001  0.400  0.442- 507 3.00 491 3.05 493 3.13 542 3.17 138 3.19 132 3.23
 512  0.002  0.598  0.445- 542 3.07 533 3.11 502 3.11 491 3.13 497 3.14 540 3.18
 513  0.998  0.997  0.446- 120 3.04 547 3.07 531 3.07 119 3.14 134 3.15 116 3.23
 514  0.338  0.398  0.445- 508 3.02 532 3.05 494 3.06 492 3.14 539 3.20 549 3.23
 515  0.165  0.900  0.446- 119 3.00 546 3.02 531 3.07 133 3.12 118 3.18 509 3.23
 516  0.003  0.798  0.444- 509 3.03 533 3.05 531 3.10 497 3.12 120 3.20 535 3.27
 517  0.665  0.798  0.442- 500 2.97 496 2.98 503 2.98 541 3.23 545 3.31 537 3.32
 518  0.663  0.998  0.442- 503 2.97 505 2.98 506 3.11 543 3.16 541 3.26 140 3.35
 519  0.331  0.599  0.445- 114 3.00 492 3.01 539 3.09 548 3.19 115 3.22 534 3.24
 520  0.667  0.401  0.442- 495 3.01 501 3.07 498 3.08 536 3.10 136 3.20 139 3.32
 521  0.167  0.099  0.448- 134 3.05 546 3.06 550 3.06 119 3.11 117 3.11 113 3.18
 522  0.834  0.703  0.444- 500 2.99 497 3.05 535 3.08 112 3.23 545 3.24 540 3.27
 523  0.498  0.902  0.444- 504 2.95 544 3.04 543 3.07 510 3.10 503 3.16 537 3.33
 524  0.334  0.999  0.446- 131 3.04 113 3.06 546 3.11 504 3.13 118 3.14 544 3.15
 525  0.499  0.702  0.443- 510 2.96 114 3.04 496 3.10 537 3.14 534 3.15 538 3.33
 526  0.499  0.495  0.444- 508 2.98 495 3.02 114 3.05 536 3.17 539 3.21 538 3.37
 527  0.331  0.202  0.446- 494 3.02 550 3.05 113 3.08 532 3.10 111 3.20 131 3.22
 528  0.499  0.098  0.443- 504 2.98 111 3.01 131 3.09 505 3.09 543 3.21 137 3.33
 529  0.663  0.600  0.442- 496 2.96 495 2.96 112 3.04 538 3.25 545 3.33 136 3.35
 530  0.171  0.499  0.445- 492 3.00 549 3.01 507 3.05 548 3.13 502 3.21 542 3.26
 531  0.054  0.899  0.481- 515 3.07 513 3.07 516 3.10 570 3.11 565 3.11 568 3.14
 532  0.390  0.301  0.481- 147 2.99 514 3.05 527 3.10 145 3.12 126 3.20 148 3.26
 533  0.052  0.700  0.481- 516 3.05 559 3.06 570 3.09 512 3.11 130 3.13 569 3.18
 534  0.392  0.700  0.483- 562 3.01 564 3.06 143 3.08 525 3.15 125 3.19 519 3.24
 535  0.888  0.795  0.483- 559 2.94 558 3.01 522 3.08 565 3.13 516 3.27 123 3.35
 536  0.561  0.398  0.481- 553 3.04 126 3.08 561 3.10 520 3.10 145 3.11 526 3.17
 537  0.553  0.795  0.484- 563 2.95 562 3.00 146 3.05 525 3.14 517 3.32 523 3.33
 538  0.557  0.601  0.485- 563 2.96 553 2.97 564 3.00 529 3.25 525 3.33 526 3.37
 539  0.388  0.504  0.483- 556 3.04 145 3.06 564 3.07 519 3.09 514 3.20 526 3.21
 540  0.891  0.599  0.483- 557 3.00 560 3.02 559 3.11 512 3.18 121 3.19 522 3.27
 541  0.722  0.897  0.482- 558 2.98 123 3.01 141 3.09 146 3.15 517 3.23 518 3.26
 542  0.053  0.499  0.481- 557 3.00 512 3.07 569 3.07 551 3.12 511 3.17 530 3.26
 543  0.555  0.996  0.481- 146 2.98 523 3.07 552 3.15 518 3.16 528 3.21 149 3.22
 544  0.394  0.899  0.482- 562 3.04 523 3.04 125 3.10 552 3.11 524 3.15 142 3.30
 545  0.723  0.699  0.484- 558 2.95 560 2.98 563 3.05 522 3.24 517 3.31 529 3.33
 546  0.221  0.997  0.481- 515 3.02 521 3.06 524 3.11 568 3.11 144 3.22 142 3.22
 547  0.892  0.000  0.483- 565 3.00 567 3.00 513 3.07 141 3.24 127 3.25 123 3.29
 548  0.220  0.597  0.484- 569 2.99 556 3.06 530 3.13 143 3.14 519 3.19 130 3.23
 549  0.221  0.403  0.481- 551 3.00 530 3.01 124 3.06 556 3.17 147 3.22 514 3.23
 550  0.223  0.198  0.482- 527 3.05 144 3.06 521 3.06 124 3.14 566 3.19 147 3.21
 551  0.116  0.402  0.517- 549 3.00 575 3.06 153 3.10 542 3.12 138 3.13 159 3.32
 552  0.446  0.997  0.520- 582 3.10 544 3.11 574 3.13 543 3.15 131 3.15 576 3.15
 553  0.609  0.499  0.517- 538 2.97 136 3.00 536 3.04 580 3.17 583 3.24 151 3.28
 554  0.777  0.196  0.521- 578 3.04 140 3.06 586 3.10 139 3.16 154 3.17 135 3.25
 555  0.777  0.399  0.520- 583 3.03 139 3.05 154 3.08 136 3.11 132 3.19 588 3.20
 556  0.281  0.501  0.519- 539 3.04 587 3.06 548 3.06 584 3.09 575 3.17 549 3.17
 557  0.945  0.500  0.516- 540 3.00 542 3.00 132 3.04 155 3.13 159 3.29 588 3.31
 558  0.776  0.799  0.515- 545 2.95 541 2.98 535 3.01 157 3.28 152 3.32 581 3.33
 559  0.944  0.703  0.517- 535 2.94 533 3.06 585 3.06 540 3.11 581 3.20 155 3.33
 560  0.782  0.603  0.517- 545 2.98 540 3.02 581 3.03 136 3.19 151 3.25 588 3.34
 561  0.614  0.299  0.518- 139 3.01 137 3.06 536 3.10 578 3.18 583 3.19 160 3.21
 562  0.444  0.800  0.517- 537 3.00 534 3.01 544 3.04 582 3.18 589 3.23 579 3.25
 563  0.610  0.701  0.517- 537 2.95 538 2.96 545 3.05 589 3.14 157 3.29 151 3.35
 564  0.447  0.600  0.518- 538 3.00 534 3.06 539 3.07 580 3.10 589 3.17 587 3.26
 565  0.943  0.901  0.517- 547 3.00 156 3.07 531 3.11 535 3.13 152 3.14 585 3.28
 566  0.111  0.200  0.520- 153 2.93 577 3.07 572 3.10 550 3.19 138 3.21 134 3.22
 567  0.939  0.097  0.519- 547 3.00 586 3.01 156 3.04 135 3.13 134 3.27 572 3.27
 568  0.112  0.997  0.518- 156 3.08 134 3.09 546 3.11 571 3.12 577 3.13 531 3.14
 569  0.111  0.597  0.517- 548 2.99 542 3.07 575 3.08 158 3.16 533 3.18 155 3.26
 570  0.108  0.798  0.517- 133 3.02 533 3.09 531 3.11 158 3.13 585 3.18 571 3.19
 571  0.165  0.898  0.556- 610 3.04 142 3.09 165 3.12 568 3.12 598 3.13 570 3.19
 572  0.002  0.201  0.557- 595 3.00 150 3.05 566 3.10 591 3.12 166 3.16 567 3.27
 573  0.334  0.200  0.556- 148 3.00 162 3.03 609 3.14 147 3.16 144 3.17 164 3.24
 574  0.500  0.099  0.556- 149 3.03 148 3.08 552 3.13 162 3.15 167 3.15 607 3.18
 575  0.165  0.501  0.554- 551 3.06 569 3.08 592 3.09 163 3.12 556 3.17 593 3.18
 576  0.334  0.996  0.557- 599 3.01 162 3.02 610 3.08 142 3.11 552 3.15 144 3.28
 577  0.165  0.098  0.555- 144 3.03 566 3.07 164 3.11 568 3.13 610 3.14 166 3.20
 578  0.668  0.198  0.556- 170 3.04 554 3.04 602 3.12 149 3.14 607 3.18 561 3.18
 579  0.333  0.800  0.558- 598 3.02 599 3.05 142 3.11 168 3.12 143 3.21 562 3.25
 580  0.501  0.504  0.556- 597 3.02 608 3.06 564 3.10 169 3.12 553 3.17 145 3.22
 581  0.832  0.695  0.556- 600 2.99 596 3.02 560 3.03 559 3.20 161 3.21 558 3.33
 582  0.497  0.898  0.557- 599 3.00 167 3.10 603 3.10 552 3.10 562 3.18 146 3.24
 583  0.670  0.401  0.556- 170 3.00 555 3.03 594 3.13 169 3.19 561 3.19 553 3.24
 584  0.336  0.403  0.555- 163 2.94 556 3.09 147 3.13 608 3.13 609 3.21 145 3.24
 585  0.998  0.795  0.556- 161 3.02 605 3.04 559 3.06 570 3.18 165 3.22 565 3.28
 586  0.836  0.100  0.557- 591 2.99 567 3.01 554 3.10 604 3.11 602 3.22 141 3.31
 587  0.331  0.598  0.556- 593 3.00 143 3.01 556 3.06 608 3.21 168 3.24 564 3.26
 588  0.835  0.498  0.558- 606 2.99 594 2.99 600 3.01 555 3.20 557 3.31 560 3.34
 589  0.503  0.699  0.556- 597 3.00 603 3.12 168 3.14 563 3.14 564 3.17 562 3.23
 590  0.666  0.998  0.558- 602 2.98 601 3.09 167 3.11 149 3.14 141 3.14 146 3.33
 591  0.889  0.196  0.592- 586 2.99 627 3.07 177 3.11 572 3.12 154 3.20 620 3.24
 592  0.058  0.500  0.592- 159 3.00 155 3.04 575 3.09 171 3.16 617 3.20 622 3.25
 593  0.225  0.599  0.592- 587 3.00 615 3.02 630 3.03 575 3.18 158 3.20 622 3.29
 594  0.727  0.499  0.593- 588 2.99 151 3.06 174 3.12 583 3.13 614 3.14 179 3.26
 595  0.053  0.296  0.593- 572 3.00 620 3.02 616 3.07 159 3.13 153 3.20 171 3.33
 596  0.726  0.699  0.592- 581 3.02 157 3.03 151 3.10 172 3.15 614 3.15 178 3.28
 597  0.556  0.601  0.590- 589 3.00 580 3.02 151 3.07 613 3.18 178 3.22 179 3.26
 598  0.224  0.800  0.592- 611 2.99 579 3.02 630 3.08 571 3.13 628 3.21 158 3.25
 599  0.389  0.900  0.592- 582 3.00 576 3.01 579 3.05 180 3.14 611 3.20 618 3.22
 600  0.885  0.600  0.591- 581 2.99 588 3.01 614 3.08 155 3.12 629 3.28 617 3.29
 601  0.720  0.901  0.596- 625 3.04 621 3.04 590 3.09 172 3.10 157 3.15 152 3.29
 602  0.718  0.095  0.593- 590 2.98 626 3.00 621 3.11 578 3.12 586 3.22 177 3.32
 603  0.554  0.800  0.593- 618 3.07 625 3.10 582 3.10 589 3.12 178 3.13 157 3.15
 604  0.886  0.999  0.594- 621 2.94 152 3.09 586 3.11 627 3.12 612 3.17 156 3.34
 605  0.054  0.702  0.593- 628 3.00 585 3.04 158 3.08 629 3.14 155 3.24 622 3.24
 606  0.889  0.404  0.594- 588 2.99 174 3.04 617 3.11 159 3.12 154 3.21 620 3.27
 607  0.557  0.198  0.594- 626 3.01 176 3.06 624 3.10 578 3.18 574 3.18 160 3.20
 608  0.394  0.499  0.593- 623 2.99 580 3.06 613 3.08 584 3.13 615 3.14 587 3.21
 609  0.389  0.299  0.594- 176 3.01 173 3.07 623 3.10 573 3.14 160 3.16 584 3.21
 610  0.221  0.995  0.590- 571 3.04 576 3.08 611 3.13 577 3.14 619 3.15 175 3.20
 611  0.274  0.896  0.628- 598 2.99 190 3.02 187 3.10 610 3.13 599 3.20 188 3.31
 612  0.942  0.899  0.631- 184 3.02 642 3.07 640 3.08 604 3.17 161 3.18 165 3.23
 613  0.449  0.596  0.630- 181 3.01 608 3.08 643 3.10 597 3.18 646 3.19 168 3.21
 614  0.780  0.600  0.630- 634 3.06 600 3.08 648 3.13 594 3.14 637 3.15 596 3.15
 615  0.279  0.503  0.627- 593 3.02 163 3.07 181 3.09 633 3.12 608 3.14 182 3.27
 616  0.109  0.202  0.630- 595 3.07 632 3.08 647 3.09 164 3.12 166 3.14 186 3.15
 617  0.947  0.500  0.631- 639 3.01 638 3.06 634 3.08 606 3.11 592 3.20 600 3.29
 618  0.447  0.800  0.631- 646 3.04 603 3.07 644 3.11 168 3.12 187 3.18 599 3.22
 619  0.112  0.997  0.629- 184 3.06 186 3.06 190 3.08 165 3.09 166 3.12 610 3.15
 620  0.950  0.297  0.630- 632 2.98 595 3.02 639 3.04 641 3.23 591 3.24 606 3.27
 621  0.782  1.000  0.628- 604 2.94 601 3.04 602 3.11 636 3.20 640 3.21 185 3.26
 622  0.112  0.601  0.632- 635 2.97 638 2.98 633 3.04 605 3.24 592 3.25 593 3.29
 623  0.445  0.401  0.628- 608 2.99 169 3.08 182 3.09 609 3.10 643 3.18 189 3.31
 624  0.612  0.300  0.630- 650 3.02 170 3.04 607 3.10 645 3.18 189 3.19 169 3.21
 625  0.611  0.896  0.630- 601 3.04 649 3.10 603 3.10 185 3.12 167 3.18 644 3.18
 626  0.614  0.102  0.629- 602 3.00 607 3.01 650 3.03 167 3.23 185 3.25 183 3.29
 627  0.942  0.100  0.629- 632 3.05 591 3.07 184 3.10 166 3.11 604 3.12 636 3.13
 628  0.108  0.795  0.629- 605 3.00 642 3.03 635 3.07 165 3.09 598 3.21 190 3.24
 629  0.946  0.699  0.631- 642 2.99 638 3.04 637 3.13 605 3.14 161 3.14 600 3.28
 630  0.273  0.698  0.628- 635 3.03 593 3.03 598 3.08 181 3.11 187 3.21 168 3.24
 631  0.335  0.202  0.668- 173 3.02 198 3.02 651 3.04 176 3.23 662 3.24 175 3.33
 632  0.996  0.198  0.665- 620 2.98 627 3.05 654 3.06 616 3.08 669 3.18 664 3.31
 633  0.171  0.502  0.665- 171 3.03 622 3.04 615 3.12 656 3.17 195 3.19 197 3.24
 634  0.836  0.504  0.666- 614 3.06 667 3.07 617 3.08 174 3.12 200 3.16 652 3.18
 635  0.167  0.699  0.664- 622 2.97 630 3.03 628 3.07 195 3.19 663 3.24 665 3.32
 636  0.835  0.100  0.668- 654 3.02 177 3.05 192 3.09 194 3.10 627 3.13 621 3.20
 637  0.836  0.697  0.669- 667 2.98 655 3.07 653 3.10 629 3.13 614 3.15 172 3.24
 638  0.003  0.600  0.665- 622 2.98 629 3.04 617 3.06 656 3.18 663 3.23 667 3.23
 639  0.001  0.399  0.664- 617 3.01 620 3.04 200 3.06 171 3.07 669 3.25 656 3.27
 640  0.835  0.900  0.668- 194 3.02 653 3.05 612 3.08 670 3.15 172 3.21 621 3.21
 641  0.836  0.298  0.669- 200 3.02 660 3.02 654 3.04 177 3.12 174 3.21 620 3.23
 642  0.001  0.798  0.665- 629 2.99 628 3.03 612 3.07 663 3.21 653 3.24 191 3.28
 643  0.503  0.498  0.667- 196 3.02 179 3.08 199 3.09 613 3.10 658 3.16 623 3.18
 644  0.499  0.900  0.668- 180 3.08 668 3.08 659 3.09 618 3.11 666 3.13 625 3.18
 645  0.665  0.400  0.668- 658 2.98 660 3.07 652 3.07 179 3.15 624 3.18 174 3.29
 646  0.499  0.703  0.666- 618 3.04 659 3.05 178 3.11 193 3.13 613 3.19 196 3.21
 647  0.165  0.297  0.668- 669 2.97 198 3.00 616 3.09 171 3.20 197 3.23 173 3.26
 648  0.671  0.601  0.668- 652 3.04 196 3.06 655 3.07 179 3.12 614 3.13 178 3.20
 649  0.666  0.801  0.668- 659 3.03 670 3.06 655 3.08 625 3.10 178 3.18 172 3.18
 650  0.664  0.201  0.664- 624 3.02 626 3.03 661 3.10 192 3.18 660 3.19 177 3.20
 651  0.385  0.298  0.705- 204 3.01 631 3.04 687 3.05 182 3.20 189 3.22 201 3.24
 652  0.722  0.500  0.702- 648 3.04 645 3.07 674 3.13 684 3.14 673 3.15 634 3.18
 653  0.888  0.801  0.703- 680 3.03 640 3.05 637 3.10 679 3.12 642 3.24 672 3.25
 654  0.890  0.197  0.702- 636 3.02 641 3.04 632 3.06 206 3.14 689 3.16 682 3.30
 655  0.724  0.701  0.703- 648 3.07 637 3.07 649 3.08 673 3.13 203 3.14 680 3.17
 656  0.060  0.501  0.703- 205 3.03 209 3.07 681 3.10 633 3.17 638 3.18 639 3.27
 657  0.221  0.999  0.706- 677 3.00 208 3.01 685 3.05 188 3.15 190 3.22 186 3.25
 658  0.560  0.397  0.703- 645 2.98 189 3.02 686 3.15 674 3.16 643 3.16 201 3.28
 659  0.556  0.799  0.702- 649 3.03 646 3.05 644 3.09 203 3.11 671 3.20 210 3.22
 660  0.725  0.301  0.702- 641 3.02 684 3.06 206 3.07 645 3.07 650 3.19 686 3.29
 661  0.559  0.200  0.704- 183 3.05 189 3.07 650 3.10 686 3.15 207 3.17 204 3.18
 662  0.388  0.096  0.705- 688 3.02 208 3.08 188 3.09 204 3.10 183 3.14 631 3.24
 663  0.056  0.701  0.705- 681 3.03 690 3.03 672 3.08 642 3.21 638 3.23 635 3.24
 664  0.055  0.100  0.707- 678 2.99 685 3.00 689 3.02 186 3.25 632 3.31 184 3.36
 665  0.225  0.799  0.706- 677 2.94 675 3.01 690 3.13 187 3.15 190 3.29 635 3.32
 666  0.391  0.901  0.706- 688 2.95 671 3.03 677 3.10 644 3.13 188 3.19 187 3.31
 667  0.888  0.601  0.703- 637 2.98 673 3.00 634 3.07 672 3.18 638 3.23 209 3.31
 668  0.552  0.999  0.704- 688 3.00 183 3.01 644 3.08 210 3.14 185 3.20 207 3.23
 669  0.058  0.295  0.702- 647 2.97 205 3.02 678 3.06 632 3.18 639 3.25 682 3.28
 670  0.720  0.900  0.704- 649 3.06 185 3.06 210 3.07 640 3.15 680 3.16 683 3.17
 671  0.444  0.802  0.741- 193 2.96 666 3.03 709 3.06 659 3.20 699 3.25 693 3.26
 672  0.948  0.698  0.742- 701 3.02 707 3.04 663 3.08 708 3.11 667 3.18 653 3.25
 673  0.782  0.600  0.738- 667 3.00 218 3.05 708 3.10 655 3.13 652 3.15 214 3.30
 674  0.615  0.496  0.742- 703 3.01 214 3.03 652 3.13 658 3.16 700 3.17 196 3.25
 675  0.276  0.707  0.743- 705 3.00 665 3.01 709 3.04 220 3.23 195 3.26 193 3.27
 676  0.279  0.501  0.742- 217 2.98 220 3.03 698 3.08 197 3.15 195 3.19 199 3.26
 677  0.275  0.898  0.739- 665 2.94 657 3.00 666 3.10 692 3.17 709 3.21 212 3.38
 678  0.107  0.199  0.740- 695 2.99 664 2.99 669 3.06 697 3.20 211 3.23 198 3.31
 679  0.945  0.894  0.742- 707 2.98 706 3.05 215 3.11 191 3.12 653 3.12 194 3.29
 680  0.783  0.801  0.740- 653 3.03 706 3.06 708 3.07 670 3.16 655 3.17 702 3.29
 681  0.114  0.603  0.739- 663 3.03 195 3.04 656 3.10 705 3.13 701 3.19 217 3.26
 682  0.946  0.301  0.743- 216 2.94 696 2.99 695 3.01 200 3.25 669 3.28 654 3.30
 683  0.778  0.997  0.742- 706 2.98 194 3.08 219 3.09 710 3.16 670 3.17 192 3.30
 684  0.776  0.398  0.739- 703 2.96 216 3.06 660 3.06 652 3.14 218 3.18 200 3.29
 685  0.111  0.003  0.741- 664 3.00 657 3.05 697 3.10 191 3.14 692 3.20 215 3.21
 686  0.612  0.298  0.742- 691 3.01 703 3.07 694 3.11 661 3.15 658 3.15 660 3.29
 687  0.279  0.302  0.742- 698 3.05 651 3.05 197 3.12 213 3.12 198 3.20 211 3.22
 688  0.446  0.998  0.739- 666 2.95 668 3.00 662 3.02 693 3.26 212 3.29 704 3.36
 689  0.947  0.103  0.742- 695 2.98 664 3.02 215 3.08 654 3.16 219 3.24 194 3.30
 690  0.110  0.798  0.740- 663 3.03 191 3.05 707 3.06 705 3.13 665 3.13 692 3.21
 691  0.505  0.301  0.778- 223 2.98 686 3.01 201 3.09 728 3.14 204 3.27 226 3.27
 692  0.167  0.900  0.778- 730 3.04 723 3.07 714 3.08 677 3.17 685 3.20 690 3.21
 693  0.501  0.902  0.781- 711 2.98 729 2.99 719 3.00 671 3.26 688 3.26 210 3.28
 694  0.665  0.200  0.780- 728 2.97 224 3.05 686 3.11 207 3.15 722 3.18 206 3.34
 695  0.001  0.200  0.775- 689 2.98 678 2.99 682 3.01 715 3.23 718 3.33 229 3.35
 696  1.000  0.398  0.776- 682 2.99 209 3.03 205 3.10 227 3.17 718 3.24 222 3.33
 697  0.162  0.100  0.779- 715 3.01 730 3.05 685 3.10 721 3.15 678 3.20 208 3.26
 698  0.334  0.401  0.777- 687 3.05 201 3.07 676 3.08 226 3.08 720 3.18 713 3.19
 699  0.503  0.702  0.780- 225 3.01 711 3.02 725 3.02 202 3.20 203 3.23 671 3.25
 700  0.503  0.503  0.779- 202 3.04 725 3.05 223 3.11 720 3.13 201 3.17 674 3.17
 701  0.002  0.602  0.777- 209 2.98 672 3.02 717 3.06 681 3.19 716 3.24 222 3.29
 702  0.665  0.799  0.778- 228 3.00 711 3.05 203 3.05 230 3.11 210 3.19 680 3.29
 703  0.673  0.399  0.775- 684 2.96 674 3.01 686 3.07 726 3.12 224 3.25 223 3.30
 704  0.501  0.100  0.781- 728 2.96 729 3.01 724 3.10 207 3.10 204 3.34 688 3.36
 705  0.168  0.700  0.777- 675 3.00 727 3.10 714 3.12 690 3.13 681 3.13 716 3.23
 706  0.833  0.901  0.776- 683 2.98 679 3.05 680 3.06 230 3.17 712 3.22 221 3.28
 707  0.001  0.799  0.776- 679 2.98 672 3.04 690 3.06 723 3.18 221 3.20 716 3.26
 708  0.833  0.700  0.776- 680 3.07 673 3.10 672 3.11 221 3.12 717 3.17 228 3.19
 709  0.337  0.802  0.778- 225 3.00 675 3.04 671 3.06 719 3.20 677 3.21 714 3.22
 710  0.668  0.000  0.780- 230 2.98 722 3.05 729 3.07 683 3.16 207 3.19 210 3.23
 711  0.556  0.803  0.814- 693 2.98 699 3.02 702 3.05 737 3.22 746 3.23 742 3.24
 712  0.887  0.000  0.816- 236 3.05 744 3.10 219 3.11 741 3.12 215 3.14 706 3.22
 713  0.227  0.401  0.818- 739 2.99 740 3.02 736 3.02 698 3.19 217 3.22 211 3.28
 714  0.220  0.800  0.814- 732 3.04 235 3.08 692 3.08 240 3.08 705 3.12 709 3.22
 715  0.057  0.102  0.815- 697 3.01 231 3.03 731 3.06 741 3.21 695 3.23 215 3.27
 716  0.058  0.701  0.817- 732 2.95 743 3.03 748 3.04 705 3.23 701 3.24 707 3.26
 717  0.893  0.602  0.813- 748 3.02 233 3.06 701 3.06 708 3.17 218 3.23 232 3.29
 718  0.059  0.301  0.817- 740 3.01 731 3.01 211 3.05 234 3.17 696 3.24 695 3.33
 719  0.393  0.904  0.816- 693 3.00 212 3.00 735 3.07 742 3.17 709 3.20 240 3.21
 720  0.392  0.499  0.816- 237 3.00 734 3.03 700 3.13 739 3.15 220 3.17 698 3.18
 721  0.223  0.199  0.815- 213 2.97 745 3.06 736 3.11 211 3.13 697 3.15 731 3.23
 722  0.721  0.097  0.817- 710 3.05 747 3.07 744 3.09 219 3.14 694 3.18 733 3.19
 723  0.058  0.897  0.815- 732 2.98 231 3.04 692 3.07 707 3.18 236 3.22 215 3.27
 724  0.392  0.099  0.818- 735 3.01 239 3.01 704 3.10 745 3.11 212 3.15 213 3.29
 725  0.554  0.602  0.815- 237 3.00 699 3.02 700 3.05 214 3.17 746 3.21 238 3.28
 726  0.723  0.499  0.813- 214 3.00 218 3.06 703 3.12 238 3.17 232 3.25 738 3.28
 727  0.223  0.601  0.814- 235 3.06 217 3.09 220 3.10 705 3.10 739 3.14 743 3.16
 728  0.557  0.197  0.814- 704 2.96 694 2.97 747 3.11 691 3.14 239 3.31 749 3.33
 729  0.556  0.000  0.814- 693 2.99 704 3.01 710 3.07 735 3.13 737 3.23 747 3.24
 730  0.220  0.000  0.813- 692 3.04 697 3.05 212 3.07 231 3.12 240 3.20 745 3.21
 731  0.106  0.201  0.852- 767 3.01 718 3.01 715 3.06 768 3.12 721 3.23 241 3.28
 732  0.111  0.801  0.849- 716 2.95 723 2.98 714 3.04 245 3.26 751 3.30 249 3.31
 733  0.776  0.201  0.854- 759 3.05 224 3.10 761 3.10 765 3.11 229 3.12 722 3.19
 734  0.446  0.401  0.851- 226 3.02 720 3.03 243 3.04 223 3.13 246 3.22 753 3.22
 735  0.446  0.001  0.852- 724 3.01 719 3.07 247 3.08 729 3.13 752 3.18 757 3.22
 736  0.273  0.299  0.852- 768 3.00 713 3.02 721 3.11 243 3.16 760 3.17 226 3.21
 737  0.611  0.901  0.854- 757 2.99 754 3.03 763 3.04 711 3.22 729 3.23 230 3.26
 738  0.778  0.402  0.855- 770 2.96 759 2.98 758 3.03 227 3.27 726 3.28 224 3.32
 739  0.278  0.501  0.851- 713 2.99 243 3.09 766 3.13 727 3.14 720 3.15 248 3.33
 740  0.115  0.399  0.850- 718 3.01 713 3.02 222 3.05 768 3.18 766 3.22 250 3.30
 741  0.943  0.099  0.853- 229 3.03 761 3.06 767 3.11 712 3.12 755 3.14 715 3.21
 742  0.446  0.804  0.854- 242 2.98 757 3.05 756 3.11 225 3.17 719 3.17 711 3.24
 743  0.111  0.600  0.851- 222 2.99 716 3.03 244 3.06 727 3.16 766 3.17 249 3.24
 744  0.780  0.003  0.854- 761 2.95 722 3.09 763 3.10 712 3.10 762 3.14 230 3.31
 745  0.276  0.101  0.851- 241 3.05 721 3.06 724 3.11 760 3.12 247 3.20 730 3.21
 746  0.614  0.702  0.853- 754 3.02 764 3.04 242 3.10 228 3.13 725 3.21 711 3.23
 747  0.612  0.103  0.853- 765 3.04 722 3.07 728 3.11 752 3.14 763 3.15 729 3.24
 748  0.944  0.697  0.850- 717 3.02 716 3.04 221 3.05 244 3.14 769 3.20 245 3.31
 749  0.613  0.302  0.854- 758 3.00 765 3.02 246 3.04 224 3.09 223 3.23 728 3.33
 750  0.780  0.800  0.855- 769 2.97 754 3.03 762 3.03 221 3.22 228 3.25 230 3.33
 751  0.167  0.900  0.891- 778 2.99 775 2.99 781 3.02 240 3.20 732 3.30 231 3.33
 752  0.501  0.103  0.890- 257 3.06 255 3.06 239 3.08 785 3.12 747 3.14 735 3.18
 753  0.499  0.499  0.892- 790 3.02 259 3.03 789 3.03 237 3.21 734 3.22 238 3.30
 754  0.668  0.800  0.887- 746 3.02 750 3.03 737 3.03 773 3.18 783 3.18 787 3.20
 755  0.996  0.999  0.890- 788 2.99 236 3.00 781 3.09 741 3.14 258 3.26 231 3.29
 756  0.337  0.801  0.891- 780 2.97 771 3.00 742 3.11 775 3.12 240 3.27 235 3.34
 757  0.505  0.899  0.890- 737 2.99 773 3.03 742 3.05 257 3.15 735 3.22 780 3.24
 758  0.667  0.399  0.889- 749 3.00 738 3.03 238 3.09 789 3.14 782 3.15 254 3.25
 759  0.828  0.301  0.889- 738 2.98 782 3.04 733 3.05 786 3.17 234 3.21 253 3.25
 760  0.332  0.198  0.889- 255 3.04 239 3.07 251 3.12 745 3.12 776 3.17 736 3.17
 761  0.833  0.098  0.888- 744 2.95 741 3.06 788 3.08 733 3.10 252 3.16 253 3.33
 762  0.830  0.899  0.890- 783 3.03 750 3.03 774 3.12 744 3.14 788 3.19 236 3.23
 763  0.667  1.000  0.888- 737 3.04 257 3.08 744 3.10 783 3.10 747 3.15 252 3.19
 764  0.668  0.604  0.887- 238 2.99 746 3.04 232 3.07 259 3.17 254 3.20 787 3.21
 765  0.663  0.201  0.889- 749 3.02 747 3.04 785 3.11 733 3.11 252 3.12 782 3.18
 766  0.169  0.502  0.889- 772 3.06 256 3.07 739 3.13 777 3.13 743 3.17 740 3.22
 767  0.001  0.199  0.888- 731 3.01 234 3.01 741 3.11 258 3.19 779 3.21 253 3.24
 768  0.168  0.297  0.888- 736 3.00 776 3.06 731 3.12 256 3.14 740 3.18 779 3.24
 769  0.833  0.702  0.888- 750 2.97 774 3.11 787 3.12 232 3.12 748 3.20 260 3.26
 770  0.834  0.497  0.889- 738 2.96 232 3.09 254 3.09 233 3.12 786 3.14 260 3.31
 771  0.387  0.704  0.926- 756 3.00 248 3.02 803 3.06 809 3.13 796 3.27 242 3.28
 772  0.222  0.599  0.926- 262 3.06 248 3.06 766 3.06 249 3.10 801 3.15 803 3.18
 773  0.558  0.804  0.926- 757 3.03 809 3.03 800 3.04 754 3.18 242 3.20 799 3.27
 774  0.888  0.799  0.926- 269 3.09 791 3.09 793 3.11 769 3.11 762 3.12 245 3.14
 775  0.222  0.803  0.925- 751 2.99 249 3.11 756 3.12 795 3.14 261 3.14 803 3.20
 776  0.220  0.201  0.926- 768 3.06 241 3.07 806 3.11 807 3.15 760 3.17 265 3.18
 777  0.059  0.497  0.926- 792 3.00 250 3.04 262 3.12 268 3.13 766 3.13 244 3.26
 778  0.219  0.996  0.926- 805 2.98 751 2.99 241 3.09 795 3.12 265 3.29 247 3.29
 779  0.055  0.298  0.928- 804 3.04 792 3.06 806 3.09 250 3.12 767 3.21 768 3.24
 780  0.386  0.899  0.925- 756 2.97 795 3.00 247 3.10 809 3.14 757 3.24 264 3.36
 781  0.058  0.903  0.925- 751 3.02 805 3.07 755 3.09 245 3.14 261 3.15 269 3.22
 782  0.724  0.300  0.926- 759 3.04 270 3.07 798 3.07 758 3.15 765 3.18 810 3.19
 783  0.722  0.902  0.925- 762 3.03 266 3.06 763 3.10 754 3.18 791 3.19 800 3.20
 784  0.054  0.700  0.926- 245 3.01 262 3.10 249 3.11 261 3.11 244 3.12 793 3.19
 785  0.556  0.202  0.927- 797 3.11 765 3.11 246 3.11 752 3.12 810 3.13 794 3.15
 786  0.891  0.399  0.926- 268 3.05 250 3.07 270 3.13 770 3.14 804 3.15 759 3.17
 787  0.725  0.703  0.927- 791 3.01 808 3.05 769 3.12 799 3.12 754 3.20 764 3.21
 788  0.890  0.004  0.925- 755 2.99 761 3.08 802 3.11 762 3.19 269 3.19 266 3.21
 789  0.556  0.402  0.926- 246 2.98 753 3.03 758 3.14 263 3.16 267 3.18 810 3.23
 790  0.389  0.500  0.926- 753 3.02 248 3.04 267 3.07 796 3.14 243 3.16 801 3.25
 791  0.779  0.799  0.962- 787 3.01 279 3.05 774 3.09 272 3.13 783 3.19 271 3.20
 792  0.110  0.400  0.961- 777 3.00 256 3.03 779 3.06   1 3.15 287 3.24  10 3.28
 793  0.942  0.702  0.964- 260 3.05 277 3.09 279 3.09 774 3.11   7 3.15 784 3.19
 794  0.442  0.200  0.963- 251 3.06 273 3.09 255 3.10   2 3.13 785 3.15 290 3.17
 795  0.282  0.901  0.962- 780 3.00 278 3.06 289 3.10 778 3.12 775 3.14 286 3.25
 796  0.448  0.597  0.963- 284 3.03   8 3.04   3 3.07 259 3.14 790 3.14 771 3.27
 797  0.609  0.104  0.965- 274 3.02 290 3.03   9 3.08 785 3.11 257 3.19 252 3.24
 798  0.776  0.203  0.964- 274 3.02 782 3.07 281 3.09 253 3.15   4 3.16 252 3.16
 799  0.616  0.698  0.964- 280 3.00 272 3.04   8 3.09 787 3.12 259 3.22 773 3.27
 800  0.610  0.898  0.964- 272 2.97 773 3.04 282 3.07   9 3.15 783 3.20 257 3.29
 801  0.275  0.500  0.964-   3 3.03 276 3.04 287 3.05 772 3.15 256 3.22 790 3.25
 802  0.943  0.101  0.963- 258 3.04   6 3.07 253 3.09 788 3.11   4 3.14 288 3.18
 803  0.279  0.701  0.963-   3 3.05 771 3.06 289 3.10 275 3.13 772 3.18 775 3.20
 804  0.947  0.299  0.963- 779 3.04 253 3.05 288 3.06   1 3.10 786 3.15 281 3.19
 805  0.115  0.998  0.962- 778 2.98 286 3.06 781 3.07 258 3.14 285 3.19   6 3.31
 806  0.111  0.199  0.963- 258 3.05 779 3.09 776 3.11 288 3.13 285 3.15  10 3.17
 807  0.278  0.299  0.964- 273 3.01 251 3.02 276 3.11  10 3.12 776 3.15 256 3.28
 808  0.776  0.604  0.962- 787 3.05 260 3.06 254 3.07 280 3.16 279 3.18   5 3.21
 809  0.450  0.803  0.961- 773 3.03   8 3.06 282 3.07 771 3.13 780 3.14 289 3.23
 810  0.612  0.299  0.964- 274 3.01   2 3.05 785 3.13 283 3.13 782 3.19 789 3.23
 
  LATTYP: Found a simple orthorhombic cell.
 ALAT       =    21.5890007019
 B/A-ratio  =     1.0392282646
 C/A-ratio  =     2.3906201105
  
  Lattice vectors:
  
 A1 = (   0.0000000000, -21.5890007019,   0.0000000000)
 A2 = ( -22.4358997345,   0.0000000000,   0.0000000000)
 A3 = (   0.0000000000,   0.0000000000, -51.6110992432)


Analysis of symmetry for initial positions (statically):
=====================================================================
 Subroutine PRICEL returns:
 Original cell was already a primitive cell.
 

 Routine SETGRP: Setting up the symmetry group for a 
 simple orthorhombic supercell.


 Subroutine GETGRP returns: Found  1 space group operations
 (whereof  1 operations were pure point group operations)
 out of a pool of  8 trial point group operations.


The static configuration has the point symmetry C_1 .


Analysis of symmetry for dynamics (positions and initial velocities):
=====================================================================
 Subroutine PRICEL returns:
 Original cell was already a primitive cell.
 

 Routine SETGRP: Setting up the symmetry group for a 
 simple orthorhombic supercell.


 Subroutine GETGRP returns: Found  1 space group operations
 (whereof  1 operations were pure point group operations)
 out of a pool of  8 trial point group operations.


The dynamic configuration has the point symmetry C_1 .


 Subroutine INISYM returns: Found  1 space group operations
 (whereof  1 operations are pure point group operations),
 and found     1 'primitive' translations

 
 
 KPOINTS: K-Mesh Generated with KP-Resolved Value 

Automatic generation of k-mesh.
Space group operators:
 irot       det(A)        alpha          n_x          n_y          n_z        tau_x        tau_y        tau_z
    1     1.000000     0.000000     1.000000     0.000000     0.000000     0.000000     0.000000     0.000000
 
 Subroutine IBZKPT returns following result:
 ===========================================
 
 Found      1 irreducible k-points:
 
 Following reciprocal coordinates:
            Coordinates               Weight
  0.000000  0.000000  0.000000      1.000000
 
 Following cartesian coordinates:
            Coordinates               Weight
  0.000000  0.000000  0.000000      1.000000
 


--------------------------------------------------------------------------------------------------------




 Dimension of arrays:
   k-points           NKPTS =      1   k-points in BZ     NKDIM =      1   number of bands    NBANDS=   4500
   number of dos      NEDOS =    801   number of ions     NIONS =    810
   non local maximal  LDIM  =      5   non local SUM 2l+1 LMDIM =     13
   total plane-waves  NPLWV = ******
   max r-space proj   IRMAX =   1518   max aug-charges    IRDMAX=   7291
[...]
  372        1.210   1.132   0.034   2.376
  373        1.225   1.099   0.035   2.360
  374        1.235   1.081   0.034   2.350
  375        1.223   1.113   0.034   2.370
  376        1.204   1.145   0.034   2.384
  377        1.216   1.107   0.039   2.361
  378        1.205   1.148   0.033   2.386
  379        1.231   1.077   0.039   2.346
  380        1.233   1.075   0.041   2.349
  381        1.231   1.083   0.037   2.351
  382        1.230   1.094   0.036   2.360
  383        1.260   1.027   0.044   2.331
  384        1.218   1.118   0.037   2.373
  385        1.249   1.048   0.040   2.337
  386        1.230   1.098   0.037   2.365
  387        1.243   1.068   0.037   2.348
  388        1.235   1.072   0.038   2.345
  389        1.222   1.110   0.034   2.366
  390        1.249   1.047   0.040   2.337
  391        1.217   1.113   0.033   2.363
  392        1.221   1.107   0.034   2.362
  393        1.206   1.141   0.035   2.383
  394        1.247   1.053   0.039   2.339
  395        1.223   1.109   0.034   2.366
  396        1.221   1.107   0.034   2.363
  397        1.230   1.097   0.036   2.363
  398        1.249   1.050   0.039   2.338
  399        1.212   1.126   0.036   2.374
  400        1.231   1.091   0.036   2.358
  401        1.228   1.087   0.037   2.353
  402        1.213   1.124   0.034   2.371
  403        1.206   1.143   0.033   2.382
  404        1.254   1.035   0.042   2.331
  405        1.221   1.115   0.035   2.371
  406        1.245   1.054   0.041   2.340
  407        1.231   1.087   0.036   2.354
  408        1.230   1.094   0.037   2.360
  409        1.237   1.074   0.038   2.350
  410        1.221   1.116   0.035   2.371
  411        1.244   1.063   0.041   2.348
  412        1.248   1.053   0.036   2.337
  413        1.228   1.089   0.037   2.355
  414        1.204   1.143   0.034   2.381
  415        1.239   1.070   0.039   2.349
  416        1.228   1.091   0.040   2.358
  417        1.239   1.075   0.037   2.351
  418        1.209   1.134   0.034   2.377
  419        1.217   1.123   0.034   2.374
  420        1.230   1.082   0.038   2.351
  421        1.227   1.088   0.039   2.354
  422        1.228   1.084   0.040   2.351
  423        1.252   1.042   0.042   2.336
  424        1.228   1.089   0.037   2.354
  425        1.224   1.097   0.038   2.359
  426        1.229   1.097   0.034   2.360
  427        1.232   1.084   0.037   2.353
  428        1.223   1.117   0.033   2.374
  429        1.214   1.127   0.036   2.376
  430        1.229   1.093   0.034   2.356
  431        1.211   1.137   0.032   2.381
  432        1.249   1.054   0.038   2.341
  433        1.211   1.138   0.034   2.383
  434        1.219   1.117   0.034   2.370
  435        1.236   1.083   0.038   2.358
  436        1.238   1.073   0.036   2.347
  437        1.241   1.069   0.036   2.346
  438        1.244   1.065   0.037   2.345
  439        1.232   1.086   0.036   2.353
  440        1.213   1.136   0.030   2.380
  441        1.205   1.147   0.032   2.383
  442        1.228   1.098   0.036   2.362
  443        1.214   1.129   0.035   2.377
  444        1.233   1.079   0.037   2.349
  445        1.216   1.118   0.037   2.370
  446        1.232   1.081   0.037   2.350
  447        1.227   1.095   0.035   2.356
  448        1.226   1.107   0.035   2.368
  449        1.239   1.077   0.037   2.353
  450        1.232   1.087   0.037   2.356
  451        1.233   1.081   0.038   2.352
  452        1.224   1.108   0.034   2.366
  453        1.238   1.070   0.037   2.346
  454        1.221   1.102   0.036   2.359
  455        1.255   1.039   0.040   2.334
  456        1.222   1.104   0.033   2.359
  457        1.225   1.099   0.035   2.360
  458        1.229   1.101   0.037   2.367
  459        1.249   1.044   0.038   2.332
  460        1.223   1.118   0.034   2.375
  461        1.227   1.101   0.034   2.362
  462        1.214   1.129   0.032   2.375
  463        1.217   1.125   0.034   2.376
  464        1.228   1.092   0.035   2.355
  465        1.231   1.087   0.035   2.353
  466        1.240   1.073   0.037   2.351
  467        1.239   1.077   0.038   2.354
  468        1.249   1.055   0.040   2.344
  469        1.216   1.108   0.036   2.360
  470        1.233   1.093   0.036   2.362
  471        1.231   1.080   0.039   2.350
  472        1.215   1.124   0.034   2.373
  473        1.228   1.098   0.037   2.362
  474        1.214   1.131   0.036   2.381
  475        1.217   1.116   0.035   2.368
  476        1.224   1.110   0.034   2.368
  477        1.249   1.046   0.040   2.336
  478        1.216   1.114   0.034   2.365
  479        1.220   1.114   0.034   2.368
  480        1.221   1.118   0.036   2.376
  481        1.224   1.100   0.036   2.360
  482        1.235   1.085   0.035   2.354
  483        1.209   1.140   0.035   2.385
  484        1.239   1.074   0.038   2.352
  485        1.224   1.101   0.035   2.359
  486        1.241   1.065   0.036   2.342
  487        1.246   1.061   0.037   2.344
  488        1.227   1.095   0.034   2.357
  489        1.239   1.064   0.037   2.341
  490        1.235   1.082   0.038   2.355
  491        1.224   1.097   0.035   2.357
  492        1.225   1.099   0.036   2.360
  493        1.232   1.083   0.037   2.352
  494        1.220   1.108   0.033   2.361
  495        1.221   1.115   0.035   2.371
  496        1.221   1.118   0.035   2.375
  497        1.218   1.109   0.036   2.362
  498        1.229   1.090   0.036   2.355
  499        1.246   1.058   0.042   2.346
  500        1.231   1.091   0.035   2.357
  501        1.238   1.074   0.039   2.350
  502        1.227   1.089   0.038   2.354
  503        1.208   1.136   0.034   2.378
  504        1.213   1.130   0.033   2.377
  505        1.226   1.098   0.037   2.360
  506        1.242   1.065   0.037   2.344
  507        1.240   1.075   0.035   2.350
  508        1.241   1.072   0.041   2.353
  509        1.235   1.079   0.035   2.349
  510        1.226   1.101   0.034   2.361
  511        1.237   1.079   0.036   2.352
  512        1.219   1.116   0.033   2.368
  513        1.249   1.047   0.040   2.336
  514        1.215   1.123   0.035   2.373
  515        1.239   1.068   0.041   2.348
  516        1.226   1.097   0.035   2.358
  517        1.211   1.131   0.035   2.377
  518        1.222   1.113   0.034   2.369
  519        1.230   1.088   0.036   2.355
  520        1.229   1.093   0.036   2.358
  521        1.237   1.065   0.041   2.344
  522        1.228   1.098   0.034   2.360
  523        1.212   1.128   0.037   2.377
  524        1.247   1.051   0.042   2.340
  525        1.221   1.112   0.036   2.368
  526        1.227   1.094   0.037   2.358
  527        1.238   1.073   0.039   2.350
  528        1.234   1.079   0.039   2.352
  529        1.234   1.090   0.035   2.360
  530        1.205   1.143   0.035   2.382
  531        1.200   1.146   0.034   2.381
  532        1.239   1.075   0.037   2.350
  533        1.222   1.101   0.039   2.362
  534        1.230   1.089   0.036   2.355
  535        1.210   1.134   0.034   2.378
  536        1.224   1.099   0.038   2.361
  537        1.221   1.112   0.036   2.368
  538        1.210   1.136   0.033   2.378
  539        1.218   1.112   0.036   2.366
  540        1.221   1.109   0.035   2.365
  541        1.242   1.071   0.038   2.350
  542        1.210   1.128   0.035   2.373
  543        1.231   1.083   0.036   2.351
  544        1.223   1.103   0.035   2.361
  545        1.215   1.127   0.033   2.376
  546        1.223   1.109   0.034   2.366
  547        1.230   1.099   0.034   2.362
  548        1.226   1.100   0.034   2.360
  549        1.227   1.098   0.037   2.362
  550        1.231   1.089   0.036   2.356
  551        1.234   1.084   0.037   2.355
  552        1.226   1.095   0.034   2.355
  553        1.224   1.099   0.037   2.361
  554        1.251   1.042   0.038   2.331
  555        1.253   1.041   0.042   2.335
  556        1.209   1.128   0.037   2.374
  557        1.242   1.068   0.039   2.349
  558        1.227   1.104   0.035   2.366
  559        1.210   1.134   0.035   2.379
  560        1.226   1.102   0.035   2.363
  561        1.245   1.051   0.039   2.335
  562        1.215   1.119   0.036   2.370
  563        1.223   1.111   0.037   2.371
  564        1.215   1.120   0.037   2.372
  565        1.234   1.078   0.037   2.350
  566        1.245   1.068   0.039   2.352
  567        1.240   1.075   0.038   2.353
  568        1.232   1.081   0.038   2.351
  569        1.230   1.090   0.036   2.356
  570        1.232   1.078   0.037   2.348
  571        1.228   1.091   0.036   2.355
  572        1.227   1.095   0.037   2.360
  573        1.253   1.047   0.039   2.339
  574        1.244   1.062   0.038   2.343
  575        1.224   1.098   0.037   2.359
  576        1.233   1.084   0.039   2.356
  577        1.237   1.070   0.039   2.346
  578        1.225   1.100   0.036   2.361
  579        1.237   1.080   0.036   2.353
  580        1.223   1.109   0.035   2.367
  581        1.219   1.119   0.035   2.372
  582        1.226   1.098   0.036   2.360
  583        1.226   1.102   0.035   2.362
  584        1.235   1.080   0.037   2.352
  585        1.226   1.096   0.034   2.356
  586        1.210   1.133   0.033   2.376
  587        1.232   1.089   0.036   2.356
  588        1.206   1.143   0.032   2.381
  589        1.222   1.106   0.034   2.361
  590        1.233   1.088   0.035   2.356
  591        1.230   1.094   0.036   2.359
  592        1.245   1.058   0.038   2.341
  593        1.216   1.124   0.035   2.375
  594        1.246   1.054   0.040   2.341
  595        1.234   1.084   0.037   2.355
  596        1.254   1.037   0.040   2.331
  597        1.236   1.078   0.037   2.351
  598        1.215   1.120   0.036   2.371
  599        1.214   1.123   0.037   2.374
  600        1.231   1.083   0.038   2.352
  601        1.241   1.065   0.039   2.345
  602        1.221   1.111   0.036   2.369
  603        1.231   1.081   0.038   2.350
  604        1.231   1.088   0.036   2.355
  605        1.228   1.092   0.037   2.357
  606        1.248   1.053   0.039   2.340
  607        1.235   1.076   0.038   2.349
  608        1.208   1.134   0.036   2.378
  609        1.245   1.055   0.040   2.340
  610        1.219   1.114   0.034   2.367
  611        1.234   1.079   0.038   2.351
  612        1.241   1.065   0.038   2.344
  613        1.231   1.080   0.036   2.347
  614        1.200   1.158   0.030   2.388
  615        1.243   1.063   0.039   2.346
  616        1.237   1.070   0.039   2.345
  617        1.207   1.135   0.033   2.376
  618        1.224   1.100   0.035   2.359
  619        1.257   1.029   0.044   2.330
  620        1.211   1.134   0.033   2.377
  621        1.215   1.128   0.034   2.377
  622        1.209   1.133   0.034   2.377
  623        1.233   1.089   0.036   2.358
  624        1.234   1.081   0.036   2.352
  625        1.227   1.095   0.036   2.358
  626        1.229   1.101   0.034   2.364
  627        1.223   1.097   0.039   2.359
  628        1.226   1.096   0.039   2.361
  629        1.218   1.113   0.035   2.367
  630        1.235   1.077   0.038   2.350
  631        1.246   1.055   0.036   2.338
  632        1.210   1.133   0.035   2.378
  633        1.241   1.065   0.036   2.342
  634        1.237   1.064   0.041   2.341
  635        1.223   1.106   0.034   2.364
  636        1.240   1.061   0.043   2.344
  637        1.222   1.104   0.037   2.364
  638        1.216   1.120   0.035   2.370
  639        1.239   1.067   0.041   2.346
  640        1.227   1.088   0.037   2.351
  641        1.247   1.056   0.041   2.344
  642        1.225   1.100   0.034   2.360
  643        1.240   1.062   0.041   2.342
  644        1.216   1.114   0.036   2.365
  645        1.228   1.097   0.036   2.361
  646        1.239   1.067   0.038   2.344
  647        1.245   1.069   0.038   2.351
  648        1.242   1.060   0.041   2.344
  649        1.227   1.089   0.039   2.356
  650        1.224   1.099   0.036   2.359
  651        1.244   1.059   0.038   2.341
  652        1.208   1.130   0.033   2.372
  653        1.211   1.126   0.033   2.370
  654        1.216   1.122   0.034   2.372
  655        1.220   1.113   0.035   2.368
  656        1.232   1.080   0.035   2.346
  657        1.239   1.070   0.039   2.348
  658        1.225   1.100   0.036   2.360
  659        1.229   1.091   0.037   2.357
  660        1.217   1.115   0.036   2.368
  661        1.253   1.033   0.041   2.326
  662        1.250   1.043   0.041   2.333
  663        1.213   1.125   0.032   2.370
  664        1.218   1.125   0.031   2.374
  665        1.226   1.104   0.034   2.364
  666        1.225   1.094   0.039   2.359
  667        1.212   1.136   0.032   2.381
  668        1.253   1.047   0.042   2.342
  669        1.217   1.118   0.035   2.370
  670        1.230   1.084   0.038   2.352
  671        1.226   1.096   0.037   2.358
  672        1.216   1.112   0.037   2.365
  673        1.227   1.096   0.036   2.359
  674        1.226   1.095   0.036   2.357
  675        1.235   1.082   0.036   2.354
  676        1.251   1.050   0.040   2.341
  677        1.218   1.119   0.034   2.371
  678        1.229   1.091   0.037   2.357
  679        1.237   1.075   0.039   2.351
  680        1.212   1.118   0.034   2.364
  681        1.236   1.070   0.039   2.344
  682        1.236   1.082   0.039   2.357
  683        1.237   1.071   0.038   2.346
  684        1.238   1.074   0.039   2.352
  685        1.232   1.081   0.038   2.351
  686        1.209   1.134   0.032   2.376
  687        1.248   1.052   0.037   2.338
  688        1.218   1.127   0.033   2.377
  689        1.241   1.071   0.037   2.349
  690        1.221   1.101   0.039   2.361
  691        1.247   1.053   0.039   2.339
  692        1.208   1.138   0.031   2.377
  693        1.215   1.130   0.034   2.379
  694        1.240   1.067   0.037   2.344
  695        1.212   1.134   0.032   2.378
  696        1.246   1.063   0.035   2.344
  697        1.215   1.126   0.033   2.373
  698        1.223   1.099   0.037   2.359
  699        1.234   1.082   0.038   2.354
  700        1.237   1.071   0.039   2.347
  701        1.225   1.099   0.035   2.359
  702        1.253   1.040   0.041   2.334
  703        1.224   1.107   0.037   2.369
  704        1.231   1.091   0.036   2.358
  705        1.206   1.139   0.033   2.378
  706        1.222   1.108   0.035   2.365
  707        1.216   1.122   0.035   2.373
  708        1.232   1.082   0.035   2.349
  709        1.219   1.110   0.035   2.364
  710        1.239   1.070   0.039   2.347
  711        1.215   1.123   0.035   2.373
  712        1.246   1.052   0.039   2.338
  713        1.225   1.099   0.038   2.362
  714        1.228   1.084   0.040   2.353
  715        1.233   1.080   0.036   2.349
  716        1.215   1.125   0.034   2.374
  717        1.238   1.075   0.035   2.348
  718        1.228   1.095   0.035   2.358
  719        1.229   1.092   0.039   2.359
  720        1.228   1.088   0.039   2.354
  721        1.229   1.081   0.040   2.350
  722        1.224   1.100   0.036   2.360
  723        1.239   1.070   0.038   2.347
  724        1.238   1.079   0.039   2.355
  725        1.236   1.079   0.038   2.353
  726        1.252   1.043   0.036   2.331
  727        1.235   1.074   0.038   2.347
  728        1.213   1.126   0.034   2.374
  729        1.213   1.121   0.037   2.372
  730        1.246   1.050   0.041   2.337
  731        1.212   1.129   0.034   2.375
  732        1.226   1.107   0.035   2.368
  733        1.237   1.067   0.039   2.343
  734        1.240   1.069   0.039   2.348
  735        1.218   1.112   0.036   2.366
  736        1.221   1.109   0.036   2.366
  737        1.217   1.119   0.034   2.370
  738        1.224   1.112   0.034   2.370
  739        1.228   1.093   0.035   2.356
  740        1.234   1.082   0.037   2.353
  741        1.225   1.096   0.038   2.359
  742        1.225   1.096   0.036   2.357
  743        1.235   1.072   0.040   2.347
  744        1.212   1.129   0.035   2.375
  745        1.225   1.099   0.035   2.359
  746        1.230   1.091   0.036   2.357
  747        1.212   1.126   0.033   2.371
  748        1.239   1.071   0.038   2.348
  749        1.241   1.076   0.039   2.355
  750        1.235   1.087   0.035   2.358
  751        1.225   1.108   0.035   2.367
  752        1.246   1.055   0.041   2.341
  753        1.240   1.067   0.037   2.345
  754        1.212   1.126   0.036   2.374
  755        1.228   1.099   0.035   2.361
  756        1.224   1.103   0.035   2.363
  757        1.221   1.112   0.037   2.369
  758        1.226   1.091   0.038   2.355
  759        1.226   1.101   0.036   2.363
  760        1.243   1.053   0.040   2.336
  761        1.217   1.115   0.036   2.369
  762        1.223   1.102   0.035   2.360
  763        1.233   1.077   0.039   2.348
  764        1.253   1.037   0.041   2.332
  765        1.211   1.120   0.038   2.369
  766        1.221   1.109   0.033   2.363
  767        1.239   1.076   0.037   2.353
  768        1.217   1.114   0.034   2.365
  769        1.228   1.095   0.035   2.358
  770        1.244   1.063   0.040   2.347
  771        1.227   1.094   0.036   2.357
  772        1.241   1.058   0.042   2.342
  773        1.221   1.110   0.035   2.366
  774        1.223   1.096   0.037   2.356
  775        1.231   1.083   0.037   2.351
  776        1.229   1.086   0.036   2.351
  777        1.250   1.050   0.040   2.340
  778        1.234   1.084   0.037   2.356
  779        1.228   1.092   0.036   2.356
  780        1.225   1.101   0.035   2.361
  781        1.241   1.066   0.039   2.346
  782        1.214   1.119   0.035   2.368
  783        1.224   1.099   0.035   2.357
  784        1.257   1.026   0.043   2.326
  785        1.220   1.107   0.034   2.362
  786        1.239   1.070   0.038   2.347
  787        1.205   1.146   0.032   2.384
  788        1.226   1.099   0.035   2.359
  789        1.236   1.082   0.037   2.355
  790        1.237   1.077   0.038   2.352
  791        1.212   1.124   0.035   2.371
  792        1.239   1.077   0.038   2.353
  793        1.233   1.082   0.038   2.352
  794        1.236   1.070   0.038   2.344
  795        1.201   1.152   0.033   2.386
  796        1.238   1.069   0.038   2.345
  797        1.235   1.078   0.040   2.352
  798        1.243   1.060   0.040   2.343
  799        1.231   1.088   0.037   2.355
  800        1.227   1.103   0.036   2.366
  801        1.223   1.103   0.035   2.361
  802        1.253   1.039   0.042   2.334
  803        1.222   1.102   0.036   2.359
  804        1.231   1.079   0.041   2.352
  805        1.221   1.115   0.034   2.371
  806        1.231   1.083   0.037   2.351
  807        1.237   1.078   0.039   2.354
  808        1.249   1.044   0.040   2.333
  809        1.214   1.119   0.035   2.369
  810        1.225   1.099   0.036   2.359
--------------------------------------------------
tot       1047.3701087.492  30.8692165.731
 

 total amount of memory used by VASP MPI-rank0   172019. kBytes
=======================================================================

   base      :      30000. kBytes
   nonlr-proj:       9717. kBytes
   fftplans  :      11433. kBytes
   grid      :      20950. kBytes
   one-center:        235. kBytes
   wavefun   :      99684. kBytes
 
  
  
 General timing and accounting informations for this job:
 ========================================================
  
                  Total CPU time used (sec):     3688.880
                            User time (sec):     3669.289
                          System time (sec):       19.592
                         Elapsed time (sec):     3735.808
  
                   Maximum memory used (kb):      757784.
                   Average memory used (kb):           0.
  
                          Minor page faults:       543701
                          Major page faults:          151
                 Voluntary context switches:       114552
