 vasp.5.4.4.18Apr17-6-g9f103f2a35 (build Jan 09 2018 19:26:39) complex          
  
 executed on             LinuxIFC date 2020.04.10  13:46:39
 running on   28 total cores
 distrk:  each k-point on   28 cores,    1 groups
 distr:  one band on NCORES_PER_BAND=   1 cores,   28 groups


--------------------------------------------------------------------------------------------------------


 INCAR:
 POTCAR:   PAW_PBE Cs_sv 08Apr2002                
 POTCAR:   PAW_PBE Ag 06Sep2000                   
 POTCAR:   PAW_PBE Fe_sv_h 08Apr2002              
 POTCAR:    PAW_PBE Cl 17Jan2003                  

 ----------------------------------------------------------------------------- 
|                                                                             |
|           W    W    AA    RRRRR   N    N  II  N    N   GGGG   !!!           |
|           W    W   A  A   R    R  NN   N  II  NN   N  G    G  !!!           |
|           W    W  A    A  R    R  N N  N  II  N N  N  G       !!!           |
|           W WW W  AAAAAA  RRRRR   N  N N  II  N  N N  G  GGG   !            |
|           WW  WW  A    A  R   R   N   NN  II  N   NN  G    G                |
|           W    W  A    A  R    R  N    N  II  N    N   GGGG   !!!           |
|                                                                             |
|      For optimal performance we recommend to set                            |
|        NCORE= 4 - approx SQRT( number of cores)                             |
|      NCORE specifies how many cores store one orbital (NPAR=cpu/NCORE).     |
|      This setting can  greatly improve the performance of VASP for DFT.     |
|      The default,   NCORE=1            might be grossly inefficient         |
|      on modern multi-core architectures or massively parallel machines.     |
|      Do your own testing !!!!                                               |
|      Unfortunately you need to use the default for GW and RPA calculations. |
|      (for HF NCORE is supported but not extensively tested yet)             |
|                                                                             |
 ----------------------------------------------------------------------------- 

 POTCAR:   PAW_PBE Cs_sv 08Apr2002                
   VRHFIN =Cs: 5s5p6s                                                           
   LEXCH  = PE                                                                  
   EATOM  =   555.6835 eV,   40.8416 Ry                                         
                                                                                
   TITEL  = PAW_PBE Cs_sv 08Apr2002                                             
   LULTRA =        F    use ultrasoft PP ?                                      
   IUNSCR =        1    unscreen: 0-lin 1-nonlin 2-no                           
   RPACOR =    2.200    partial core radius                                     
   POMASS =  132.900; ZVAL   =    9.000    mass and valenz                      
   RCORE  =    2.500    outmost cutoff radius                                   
   RWIGS  =    2.500; RWIGS  =    1.323    wigner-seitz radius (au A)           
   ENMAX  =  220.318; ENMIN  =  165.238 eV                                      
   RCLOC  =    2.207    cutoff for local pot                                    
   LCOR   =        T    correct aug charges                                     
   LPAW   =        T    paw PP                                                  
   EAUG   =  407.933                                                            
   DEXC   =    -.004                                                            
   RMAX   =    3.106    core radius for proj-oper                               
   RAUG   =    1.300    factor for augmentation sphere                          
   RDEP   =    2.590    radius for radial grids                                 
   QCUT   =   -4.024; QGAM   =    8.048    optimization parameters              
                                                                                
   Description                                                                  
     l     E      TYP  RCUT    TYP  RCUT                                        
     0   .000     23  1.900                                                     
     0   .000     23  1.900                                                     
     0   .000     23  1.900                                                     
     0   .000     23  1.900                                                     
     1   .000     23  2.500                                                     
     1  -.200     23  2.500                                                     
     2   .000     23  2.500                                                     
  local pseudopotential read in
  partial core-charges read in
  atomic valenz-charges read in
  non local Contribution for L=           0  read in
    real space projection operators read in
  non local Contribution for L=           0  read in
    real space projection operators read in
  non local Contribution for L=           1  read in
    real space projection operators read in
  non local Contribution for L=           1  read in
    real space projection operators read in
  non local Contribution for L=           2  read in
    real space projection operators read in
    PAW grid and wavefunctions read in
 
   number of l-projection  operators is LMAX  =           5
   number of lm-projection operators is LMMAX =          13
 
 POTCAR:   PAW_PBE Ag 06Sep2000                   
   VRHFIN =Ag : s1 d10                                                          
   LEXCH  = PE                                                                  
   EATOM  =  1037.4134 eV,   76.2477 Ry                                         
                                                                                
   TITEL  = PAW_PBE Ag 06Sep2000                                                
   LULTRA =        F    use ultrasoft PP ?                                      
   IUNSCR =        1    unscreen: 0-lin 1-nonlin 2-no                           
   RPACOR =    2.000    partial core radius                                     
   POMASS =  107.868; ZVAL   =   11.000    mass and valenz                      
   RCORE  =    2.400    outmost cutoff radius                                   
   RWIGS  =    2.840; RWIGS  =    1.503    wigner-seitz radius (au A)           
   ENMAX  =  249.846; ENMIN  =  187.385 eV                                      
   RCLOC  =    1.962    cutoff for local pot                                    
   LCOR   =        T    correct aug charges                                     
   LPAW   =        T    paw PP                                                  
   EAUG   =  412.496                                                            
   DEXC   =    -.047                                                            
   RMAX   =    2.917    core radius for proj-oper                               
   RAUG   =    1.300    factor for augmentation sphere                          
   RDEP   =    2.416    radius for radial grids                                 
   QCUT   =   -4.285; QGAM   =    8.570    optimization parameters              
                                                                                
   Description                                                                  
     l     E      TYP  RCUT    TYP  RCUT                                        
     2   .000     23  2.400                                                     
     2   .000     23  2.400                                                     
     0   .000     23  2.400                                                     
     0   .000     23  2.400                                                     
     1  -.200     23  2.400                                                     
     1  1.500     23  2.400                                                     
     3   .000      7   .000                                                     
  local pseudopotential read in
  partial core-charges read in
  atomic valenz-charges read in
  non local Contribution for L=           2  read in
    real space projection operators read in
  non local Contribution for L=           2  read in
    real space projection operators read in
  non local Contribution for L=           0  read in
    real space projection operators read in
  non local Contribution for L=           0  read in
    real space projection operators read in
  non local Contribution for L=           1  read in
    real space projection operators read in
  non local Contribution for L=           1  read in
    real space projection operators read in
    PAW grid and wavefunctions read in
 
   number of l-projection  operators is LMAX  =           6
   number of lm-projection operators is LMMAX =          18
 
 POTCAR:   PAW_PBE Fe_sv_h 08Apr2002              
   VRHFIN =Fe:  d7 s1                                                           
   LEXCH  = PE                                                                  
   EATOM  =  3377.7268 eV,  248.2559 Ry                                         
                                                                                
   TITEL  = PAW_PBE Fe_sv_h 08Apr2002                                           
   LULTRA =        F    use ultrasoft PP ?                                      
   IUNSCR =        1    unscreen: 0-lin 1-nonlin 2-no                           
   RPACOR =    1.400    partial core radius                                     
   POMASS =   55.847; ZVAL   =   16.000    mass and valenz                      
   RCORE  =    1.600    outmost cutoff radius                                   
   RWIGS  =    2.200; RWIGS  =    1.164    wigner-seitz radius (au A)           
   ENMAX  =  547.365; ENMIN  =  410.523 eV                                      
   RCLOC  =     .801    cutoff for local pot                                    
   LCOR   =        T    correct aug charges                                     
   LPAW   =        T    paw PP                                                  
   EAUG   =  946.219                                                            
   DEXC   =     .000                                                            
   RMAX   =    1.971    core radius for proj-oper                               
   RAUG   =    1.300    factor for augmentation sphere                          
   RDEP   =    1.688    radius for radial grids                                 
   QCUT   =   -6.343; QGAM   =   12.685    optimization parameters              
                                                                                
   Description                                                                  
     l     E      TYP  RCUT    TYP  RCUT                                        
     0   .000     23  1.600                                                     
     0   .000     23  1.600                                                     
     1   .000     23  1.600                                                     
     1  2.000     23  1.600                                                     
     2   .000     23  1.600                                                     
     2   .000     23  1.600                                                     
     3   .000      7   .000                                                     
  local pseudopotential read in
  partial core-charges read in
  atomic valenz-charges read in
  non local Contribution for L=           0  read in
    real space projection operators read in
  non local Contribution for L=           0  read in
    real space projection operators read in
  non local Contribution for L=           1  read in
    real space projection operators read in
  non local Contribution for L=           1  read in
    real space projection operators read in
  non local Contribution for L=           2  read in
    real space projection operators read in
  non local Contribution for L=           2  read in
    real space projection operators read in
    PAW grid and wavefunctions read in
 
   number of l-projection  operators is LMAX  =           6
   number of lm-projection operators is LMMAX =          18
 
 POTCAR:    PAW_PBE Cl 17Jan2003                  
   VRHFIN =Cl: s2p5                                                             
   LEXCH  = PE                                                                  
   EATOM  =   409.7259 eV,   30.1140 Ry                                         
                                                                                
   TITEL  = PAW_PBE Cl 17Jan2003                                                
   LULTRA =        F    use ultrasoft PP ?                                      
   IUNSCR =        1    unscreen: 0-lin 1-nonlin 2-no                           
   RPACOR =    1.500    partial core radius                                     
   POMASS =   35.453; ZVAL   =    7.000    mass and valenz                      
   RCORE  =    1.900    outmost cutoff radius                                   
   RWIGS  =    2.100; RWIGS  =    1.111    wigner-seitz radius (au A)           
   ENMAX  =  280.000; ENMIN  =  196.854 eV                                      
   ICORE  =        2    local potential                                         
   LCOR   =        T    correct aug charges                                     
   LPAW   =        T    paw PP                                                  
   EAUG   =  356.192                                                            
   DEXC   =     .000                                                            
   RMAX   =    2.846    core radius for proj-oper                               
   RAUG   =    1.300    factor for augmentation sphere                          
   RDEP   =    2.020    radius for radial grids                                 
   QCUT   =   -4.392; QGAM   =    8.784    optimization parameters              
                                                                                
   Description                                                                  
     l     E      TYP  RCUT    TYP  RCUT                                        
     0   .000     23  1.900                                                     
     0   .000     23  1.900                                                     
     1   .000     23  1.900                                                     
     1   .000     23  1.900                                                     
     2   .000     23  1.900                                                     
  local pseudopotential read in
  partial core-charges read in
  atomic valenz-charges read in
  non local Contribution for L=           0  read in
    real space projection operators read in
  non local Contribution for L=           0  read in
    real space projection operators read in
  non local Contribution for L=           1  read in
    real space projection operators read in
  non local Contribution for L=           1  read in
    real space projection operators read in
    PAW grid and wavefunctions read in
 
   number of l-projection  operators is LMAX  =           4
   number of lm-projection operators is LMMAX =           8
 

 ----------------------------------------------------------------------------- 
|                                                                             |
|  ADVICE TO THIS USER RUNNING 'VASP/VAMP'   (HEAR YOUR MASTER'S VOICE ...):  |
|                                                                             |
|      You have a (more or less) 'large supercell' and for larger cells       |
|      it might be more efficient to use real space projection operators      |
|      So try LREAL= Auto  in the INCAR   file.                               |
|      Mind: If you want to do a very accurate calculations keep the          |
|      reciprocal projection scheme          (i.e. LREAL=.FALSE.)             |
|                                                                             |
 ----------------------------------------------------------------------------- 

 PAW_PBE Cs_sv 08Apr2002                :
 energy of atom  1       EATOM= -555.6835
 kinetic energy error for atom=    0.0009 (will be added to EATOM!!)
 PAW_PBE Ag 06Sep2000                   :
 energy of atom  2       EATOM=-1037.4134
 kinetic energy error for atom=    0.0010 (will be added to EATOM!!)
 PAW_PBE Fe_sv_h 08Apr2002              :
 energy of atom  3       EATOM=-3377.7268
 kinetic energy error for atom=    0.0650 (will be added to EATOM!!)
  PAW_PBE Cl 17Jan2003                  :
 energy of atom  4       EATOM= -409.7259
 kinetic energy error for atom=    0.0010 (will be added to EATOM!!)
 
 
 POSCAR: cs2agfecl6                              
  positions in direct lattice
  velocities in cartesian coordinates
 exchange correlation table for  LEXCH =        8
   RHO(1)=    0.500       N(1)  =     2000
   RHO(2)=  100.500       N(2)  =     4000
 


--------------------------------------------------------------------------------------------------------


 ion  position               nearest neighbor table
   1  0.250  0.750  0.750-
   2  0.750  0.250  0.250-
   3  0.750  0.250  0.750-
   4  0.250  0.750  0.250-
   5  0.750  0.750  0.250-
   6  0.250  0.250  0.750-
   7  0.250  0.250  0.250-
   8  0.750  0.750  0.750-
   9  0.500  0.000  0.500-  39 2.77  40 2.77  25 2.78  26 2.78  18 2.78  17 2.78
  10  0.500  0.500  0.000-  33 2.77  34 2.77  23 2.78  24 2.78  20 2.78  19 2.78
  11  0.000  0.500  0.500-  21 2.77  22 2.77  31 2.78  35 2.78  32 2.78  36 2.78
  12  0.000  0.000  0.000-  27 2.77  28 2.77  29 2.78  30 2.78  37 2.78  38 2.78
  13  0.500  0.500  0.500-  21 2.43  22 2.43  19 2.43  20 2.43  17 2.43  18 2.43
  14  0.500  0.000  0.000-  27 2.43  28 2.43  24 2.43  26 2.43  25 2.43  23 2.43
  15  0.000  0.500  0.000-  34 2.43  33 2.43  32 2.43  29 2.43  30 2.43  31 2.43
  16  0.000  0.000  0.500-  40 2.43  39 2.43  38 2.43  36 2.43  37 2.43  35 2.43
  17  0.500  0.734  0.500-  13 2.43   9 2.78
  18  0.500  0.266  0.500-  13 2.43   9 2.78
  19  0.500  0.500  0.734-  13 2.43  10 2.78
  20  0.500  0.500  0.266-  13 2.43  10 2.78
  21  0.734  0.500  0.500-  13 2.43  11 2.77
  22  0.266  0.500  0.500-  13 2.43  11 2.77
  23  0.500  0.234  0.000-  14 2.43  10 2.78
  24  0.500  0.766  0.000-  14 2.43  10 2.78
  25  0.500  0.000  0.234-  14 2.43   9 2.78
  26  0.500  0.000  0.766-  14 2.43   9 2.78
  27  0.734  0.000  0.000-  14 2.43  12 2.77
  28  0.266  0.000  0.000-  14 2.43  12 2.77
  29  0.000  0.734  0.000-  15 2.43  12 2.78
  30  0.000  0.266  0.000-  15 2.43  12 2.78
  31  0.000  0.500  0.234-  15 2.43  11 2.78
  32  0.000  0.500  0.766-  15 2.43  11 2.78
  33  0.234  0.500  0.000-  15 2.43  10 2.77
  34  0.766  0.500  0.000-  15 2.43  10 2.77
  35  0.000  0.234  0.500-  16 2.43  11 2.78
  36  0.000  0.766  0.500-  16 2.43  11 2.78
  37  0.000  0.000  0.734-  16 2.43  12 2.78
  38  0.000  0.000  0.266-  16 2.43  12 2.78
  39  0.234  0.000  0.500-  16 2.43   9 2.77
  40  0.766  0.000  0.500-  16 2.43   9 2.77
 
  LATTYP: Found a simple tetragonal cell.
 ALAT       =    10.4231347006
 C/A-ratio  =     0.9978625155
  
  Lattice vectors:
  
 A1 = (   0.0000000000,  10.4231347006,   0.0000000000)
 A2 = (   0.0000000000,   0.0000000000, -10.4231347006)
 A3 = ( -10.4008554119,   0.0000000000,   0.0000000000)


Analysis of symmetry for initial positions (statically):
=====================================================================
 Subroutine PRICEL returns following result:
 
  LATTYP: Found a body centered tetragonal cell.
 ALAT       =     7.3702692280
 C/A-ratio  =     1.4111907028
  
  Lattice vectors:
  
 A1 = (   5.2004277060,   0.0000000000,  -5.2115673503)
 A2 = (   5.2004277060,   0.0000000000,   5.2115673503)
 A3 = (  -5.2004277060,  -5.2115673503,   0.0000000000)
 
   4 primitive cells build up your supercell.
 

 Routine SETGRP: Setting up the symmetry group for a 
 simple tetragonal supercell.


 Subroutine GETGRP returns: Found 16 space group operations
 (whereof 16 operations were pure point group operations)
 out of a pool of 16 trial point group operations.


The static configuration has the point symmetry D_4h.


Analysis of symmetry for dynamics (positions and initial velocities):
=====================================================================
 Subroutine PRICEL returns following result:
 
  LATTYP: Found a body centered tetragonal cell.
 ALAT       =     7.3702692280
 C/A-ratio  =     1.4111907028
  
  Lattice vectors:
  
 A1 = (   5.2004277060,   0.0000000000,  -5.2115673503)
 A2 = (   5.2004277060,   0.0000000000,   5.2115673503)
 A3 = (  -5.2004277060,  -5.2115673503,   0.0000000000)
 
   4 primitive cells build up your supercell.
 

 Routine SETGRP: Setting up the symmetry group for a 
 simple tetragonal supercell.


 Subroutine GETGRP returns: Found 16 space group operations
 (whereof 16 operations were pure point group operations)
 out of a pool of 16 trial point group operations.


The dynamic configuration has the point symmetry D_4h.


Analysis of structural, dynamic, and magnetic symmetry:
=====================================================================
 Subroutine PRICEL returns following result:
 
  LATTYP: Found a body centered tetragonal cell.
 ALAT       =     7.3702692280
 C/A-ratio  =     1.4111907028
  
  Lattice vectors:
  
 A1 = (   5.2004277060,   0.0000000000,  -5.2115673503)
 A2 = (   5.2004277060,   0.0000000000,   5.2115673503)
 A3 = (  -5.2004277060,  -5.2115673503,   0.0000000000)
 
   4 primitive cells build up your supercell.
 

 Routine SETGRP: Setting up the symmetry group for a 
 simple tetragonal supercell.


 Subroutine GETGRP returns: Found 16 space group operations
 (whereof 16 operations were pure point group operations)
 out of a pool of 16 trial point group operations.


The magnetic configuration has the point symmetry D_4h.


 Subroutine INISYM returns: Found 16 space group operations
 (whereof 16 operations are pure point group operations),
 and found     4 'primitive' translations

 
 
 KPOINTS: cs2agfecl6_band                         
  interpolating k-points between supplied coordinates
  k-points in reciprocal lattice
Space group operators:
 irot       det(A)        alpha          n_x          n_y          n_z        tau_x        tau_y        tau_z
    1     1.000000     0.000000     1.000000     0.000000     0.000000     0.000000     0.000000     0.000000
    2    -1.000000     0.000000     1.000000     0.000000     0.000000     0.000000     0.000000     0.000000
    3     1.000000    90.000000     1.000000     0.000000     0.000000     0.000000     0.000000     0.000000
    4    -1.000000    90.000000     1.000000     0.000000     0.000000     0.000000     0.000000     0.000000
    5     1.000000   180.000000     1.000000     0.000000     0.000000     0.000000     0.000000     0.000000
    6    -1.000000   180.000000     1.000000     0.000000     0.000000     0.000000     0.000000     0.000000
    7     1.000000    90.000000    -1.000000     0.000000     0.000000     0.000000     0.000000     0.000000
    8    -1.000000    90.000000    -1.000000     0.000000     0.000000     0.000000     0.000000     0.000000
    9     1.000000   180.000000     0.000000     0.000000     1.000000     0.000000     0.000000     0.000000
   10    -1.000000   180.000000     0.000000     0.000000     1.000000     0.000000     0.000000     0.000000
   11     1.000000   180.000000     0.000000    -0.707107     0.707107     0.000000     0.000000     0.000000
   12    -1.000000   180.000000     0.000000    -0.707107     0.707107     0.000000     0.000000     0.000000
   13     1.000000   180.000000     0.000000     1.000000     0.000000     0.000000     0.000000     0.000000
   14    -1.000000   180.000000     0.000000     1.000000     0.000000     0.000000     0.000000     0.000000
   15     1.000000   180.000000     0.000000     0.707107     0.707107     0.000000     0.000000     0.000000
   16    -1.000000   180.000000     0.000000     0.707107     0.707107     0.000000     0.000000     0.000000


--------------------------------------------------------------------------------------------------------




 Dimension of arrays:
   k-points           NKPTS =     80   k-points in BZ     NKDIM =     80   number of bands    NBANDS=    224
   number of dos      NEDOS =    301   number of ions     NIONS =     40
   non local maximal  LDIM  =      6   non local SUM 2l+1 LMDIM =     18
   total plane-waves  NPLWV = 884736
   max r-space proj   IRMAX =      1   max aug-charges    IRDMAX=  39341
   dimension x,y,z NGX =    96 NGY =   96 NGZ =   96
   dimension x,y,z NGXF=   192 NGYF=  192 NGZF=  192
   support grid    NGXF=   192 NGYF=  192 NGZF=  192
   ions per type =               8   4   4  24
   NGX,Y,Z   is equivalent  to a cutoff of  15.34, 15.31, 15.31 a.u.
   NGXF,Y,Z  is equivalent  to a cutoff of  30.69, 30.62, 30.62 a.u.

 SYSTEM =  SCF                                     
 POSCAR =  cs2agfecl6                              

 Startparameter for this run:
   NWRITE =      2    write-flag & timer
   PREC   = accura    normal or accurate (medium, high low for compatibility)
   ISTART =      0    job   : 0-new  1-cont  2-samecut
   ICHARG =      2    charge: 1-file 2-atom 10-const
   ISPIN  =      2    spin polarized calculation?
   LNONCOLLINEAR =      F non collinear calculations
   LSORBIT =      F    spin-orbit coupling
   INIWAV =      1    electr: 0-lowe 1-rand  2-diag
   LASPH  =      F    aspherical Exc in radial PAW
   METAGGA=      F    non-selfconsistent MetaGGA calc.

 Electronic Relaxation 1
   ENCUT  =  720.0 eV  52.92 Ry    7.27 a.u.  22.76 22.80 22.80*2*pi/ulx,y,z
   ENINI  =  720.0     initial cutoff
   ENAUG  =  946.2 eV  augmentation charge cutoff
   NELM   =    100;   NELMIN=  2; NELMDL= -5     # of ELM steps 
   EDIFF  = 0.1E-06   stopping-criterion for ELM
   LREAL  =      F    real-space projection
   NLSPLINE    = F    spline interpolate recip. space projectors
   LCOMPAT=      F    compatible to vasp.4.4
   GGA_COMPAT  = T    GGA compatible to vasp.4.4-vasp.4.6
   LMAXPAW     = -100 max onsite density
   LMAXMIX     =    4 max onsite mixed and CHGCAR
   VOSKOWN=      0    Vosko Wilk Nusair interpolation
   ROPT   =    0.00000   0.00000   0.00000   0.00000
 Ionic relaxation
   EDIFFG = 0.1E-05   stopping-criterion for IOM
   NSW    =      0    number of steps for IOM
   NBLOCK =      1;   KBLOCK =      1    inner block; outer block 
   IBRION =     -1    ionic relax: 0-MD 1-quasi-New 2-CG
   NFREE  =      0    steps in history (QN), initial steepest desc. (CG)
   ISIF   =      3    stress and relaxation
   IWAVPR =     10    prediction:  0-non 1-charg 2-wave 3-comb
   ISYM   =      2    0-nonsym 1-usesym 2-fastsym
   LCORR  =      T    Harris-Foulkes like correction to forces

   POTIM  = 0.5000    time-step for ionic-motion
   TEIN   =    0.0    initial temperature
   TEBEG  =    0.0;   TEEND  =   0.0 temperature during run
   SMASS  =  -3.00    Nose mass-parameter (am)
   estimated Nose-frequenzy (Omega)   =  0.10E-29 period in steps =****** mass=  -0.247E-26a.u.
   SCALEE = 1.0000    scale energy and forces
   NPACO  =    256;   APACO  = 16.0  distance and # of slots for P.C.
   PSTRESS=    0.0 pullay stress

  Mass of Ions in am
   POMASS = 132.90107.87 55.85 35.45
  Ionic Valenz
   ZVAL   =   9.00 11.00 16.00  7.00
  Atomic Wigner-Seitz radii
   RWIGS  =  -1.00 -1.00 -1.00 -1.00
  virtual crystal weights 
   VCA    =   1.00  1.00  1.00  1.00
   NELECT =     348.0000    total number of electrons
   NUPDOWN=      -1.0000    fix difference up-down

 DOS related values:
   EMIN   =  10.00;   EMAX   =-10.00  energy-range for DOS
   EFERMI =   0.00
   ISMEAR =     0;   SIGMA  =   0.01  broadening in eV -4-tet -1-fermi 0-gaus

 Electronic relaxation 2 (details)
   IALGO  =     38    algorithm
   LDIAG  =      T    sub-space diagonalisation (order eigenvalues)
   LSUBROT=      F    optimize rotation matrix (better conditioning)
   TURBO    =      0    0=normal 1=particle mesh
   IRESTART =      0    0=no restart 2=restart with 2 vectors
   NREBOOT  =      0    no. of reboots
   NMIN     =      0    reboot dimension
   EREF     =   0.00    reference energy to select bands
   IMIX   =      4    mixing-type and parameters
     AMIX     =   0.40;   BMIX     =  1.00
     AMIX_MAG =   1.60;   BMIX_MAG =  1.00
     AMIN     =   0.10
     WC   =   100.;   INIMIX=   1;  MIXPRE=   1;  MAXMIX= -45

 Intra band minimization:
   WEIMIN = 0.0000     energy-eigenvalue tresh-hold
   EBREAK =  0.11E-09  absolut break condition
   DEPER  =   0.30     relativ break condition  

   TIME   =   0.40     timestep for ELM

  volume/ion in A,a.u.               =      28.25       190.63
  Fermi-wavevector in a.u.,A,eV,Ry     =   1.105552  2.089191 16.629667  1.222246
  Thomas-Fermi vector in A             =   2.242041
 
 Write flags
   LWAVE        =      T    write WAVECAR
   LDOWNSAMPLE  =      F    k-point downsampling of WAVECAR
   LCHARG       =      T    write CHGCAR
   LVTOT        =      F    write LOCPOT, total local potential
   LVHAR        =      F    write LOCPOT, Hartree potential only
   LELF         =      F    write electronic localiz. function (ELF)
   LORBIT       =     11    0 simple, 1 ext, 2 COOP (PROOUT), +10 PAW based schemes


 Dipole corrections
   LMONO  =      F    monopole corrections only (constant potential shift)
   LDIPOL =      F    correct potential (dipole corrections)
   IDIPOL =      0    1-x, 2-y, 3-z, 4-all directions 
   EPSILON=  1.0000000 bulk dielectric constant

 LDA+U is selected, type is set to LDAUTYPE =  2
   angular momentum for each species LDAUL =    -1   -1    2   -1
   U (eV)           for each species LDAUU =   0.0  0.0  6.0  0.0
   J (eV)           for each species LDAUJ =   0.0  0.0  0.0  0.0
 Exchange correlation treatment:
   GGA     =    PE    GGA type
   LEXCH   =     8    internal setting for exchange type
   VOSKOWN=      0    Vosko Wilk Nusair interpolation
   LHFCALC =     F    Hartree Fock is set to
   LHFONE  =     F    Hartree Fock one center treatment
   AEXX    =    0.0000 exact exchange contribution

 Linear response parameters
   LEPSILON=     F    determine dielectric tensor
   LRPA    =     F    only Hartree local field effects (RPA)
   LNABLA  =     F    use nabla operator in PAW spheres
   LVEL    =     F    velocity operator in full k-point grid
   LINTERFAST=   F  fast interpolation
   KINTER  =     0    interpolate to denser k-point grid
   CSHIFT  =0.1000    complex shift for real part using Kramers Kronig
   OMEGAMAX=  -1.0    maximum frequency
   DEG_THRESHOLD= 0.2000000E-02 threshold for treating states as degnerate
   RTIME   =   -0.100 relaxation time in fs
  (WPLASMAI=    0.000 imaginary part of plasma frequency in eV, 0.658/RTIME)
   DFIELD  = 0.0000000 0.0000000 0.0000000 field for delta impulse in time
 
 Orbital magnetization related:
   ORBITALMAG=     F  switch on orbital magnetization
   LCHIMAG   =     F  perturbation theory with respect to B field
   DQ        =  0.001000  dq finite difference perturbation B field
   LLRAUG    =     F  two centre corrections for induced B field



--------------------------------------------------------------------------------------------------------


 Static calculation
 charge density and potential will be updated during run
 spin polarized calculation
 Variant of blocked Davidson
 Davidson routine will perform the subspace rotation
 perform sub-space diagonalisation
    after iterative eigenvector-optimisation
 modified Broyden-mixing scheme, WC =      100.0
 initial mixing is a Kerker type mixing with AMIX =  0.4000 and BMIX =      1.0000
 Hartree-type preconditioning will be used
 using additional bands           50
 reciprocal scheme for non local part
 use partial core corrections
 calculate Harris-corrections to forces 
   (improved forces if not selfconsistent)
 use gradient corrections 
 use of overlap-Matrix (Vanderbilt PP)
 Gauss-broadening in eV      SIGMA  =   0.01


--------------------------------------------------------------------------------------------------------


  energy-cutoff  :      720.00
  volume of cell :     1129.97
      direct lattice vectors                 reciprocal lattice vectors
    10.400855412  0.000000000  0.000000000     0.096145938  0.000000000  0.000000000
     0.000000000 10.423134701  0.000000000     0.000000000  0.095940428  0.000000000
     0.000000000  0.000000000 10.423134701     0.000000000  0.000000000  0.095940428

  length of vectors
    10.400855412 10.423134701 10.423134701     0.096145938  0.095940428  0.095940428


 
 k-points in units of 2pi/SCALE and weight: cs2agfecl6_band                         
   0.04807297  0.00000000  0.00000000       0.013
   0.04807297  0.00252475  0.00252475       0.013
   0.04807297  0.00504950  0.00504950       0.013
   0.04807297  0.00757424  0.00757424       0.013
   0.04807297  0.01009899  0.01009899       0.013
   0.04807297  0.01262374  0.01262374       0.013
   0.04807297  0.01514849  0.01514849       0.013
   0.04807297  0.01767324  0.01767324       0.013
   0.04807297  0.02019798  0.02019798       0.013
   0.04807297  0.02272273  0.02272273       0.013
   0.04807297  0.02524748  0.02524748       0.013
   0.04807297  0.02777223  0.02777223       0.013
   0.04807297  0.03029698  0.03029698       0.013
   0.04807297  0.03282173  0.03282173       0.013
   0.04807297  0.03534647  0.03534647       0.013
   0.04807297  0.03787122  0.03787122       0.013
   0.04807297  0.04039597  0.04039597       0.013
   0.04807297  0.04292072  0.04292072       0.013
   0.04807297  0.04544547  0.04544547       0.013
   0.04807297  0.04797021  0.04797021       0.013
   0.04807297  0.04797021  0.04797021       0.013
   0.04807297  0.04797021  0.04544547       0.013
   0.04807297  0.04797021  0.04292072       0.013
   0.04807297  0.04797021  0.04039597       0.013
   0.04807297  0.04797021  0.03787122       0.013
   0.04807297  0.04797021  0.03534647       0.013
   0.04807297  0.04797021  0.03282173       0.013
   0.04807297  0.04797021  0.03029698       0.013
   0.04807297  0.04797021  0.02777223       0.013
   0.04807297  0.04797021  0.02524748       0.013
   0.04807297  0.04797021  0.02272273       0.013
   0.04807297  0.04797021  0.02019798       0.013
   0.04807297  0.04797021  0.01767324       0.013
   0.04807297  0.04797021  0.01514849       0.013
   0.04807297  0.04797021  0.01262374       0.013
   0.04807297  0.04797021  0.01009899       0.013
   0.04807297  0.04797021  0.00757424       0.013
   0.04807297  0.04797021  0.00504950       0.013
   0.04807297  0.04797021  0.00252475       0.013
   0.04807297  0.04797021  0.00000000       0.013
   0.04807297  0.04797021  0.00000000       0.013
   0.04554281  0.04544547  0.00000000       0.013
   0.04301266  0.04292072  0.00000000       0.013
   0.04048250  0.04039597  0.00000000       0.013
   0.03795234  0.03787122  0.00000000       0.013
   0.03542219  0.03534647  0.00000000       0.013
   0.03289203  0.03282173  0.00000000       0.013
   0.03036188  0.03029698  0.00000000       0.013
   0.02783172  0.02777223  0.00000000       0.013
   0.02530156  0.02524748  0.00000000       0.013
   0.02277141  0.02272273  0.00000000       0.013
   0.02024125  0.02019798  0.00000000       0.013
   0.01771109  0.01767324  0.00000000       0.013
   0.01518094  0.01514849  0.00000000       0.013
   0.01265078  0.01262374  0.00000000       0.013
   0.01012063  0.01009899  0.00000000       0.013
   0.00759047  0.00757424  0.00000000       0.013
   0.00506031  0.00504950  0.00000000       0.013
   0.00253016  0.00252475  0.00000000       0.013
   0.00000000  0.00000000  0.00000000       0.013
   0.00000000  0.00000000  0.00000000       0.013
   0.00253016  0.00252475  0.00252475       0.013
   0.00506031  0.00504950  0.00504950       0.013
   0.00759047  0.00757424  0.00757424       0.013
   0.01012063  0.01009899  0.01009899       0.013
   0.01265078  0.01262374  0.01262374       0.013
   0.01518094  0.01514849  0.01514849       0.013
   0.01771109  0.01767324  0.01767324       0.013
   0.02024125  0.02019798  0.02019798       0.013
   0.02277141  0.02272273  0.02272273       0.013
   0.02530156  0.02524748  0.02524748       0.013
   0.02783172  0.02777223  0.02777223       0.013
   0.03036188  0.03029698  0.03029698       0.013
   0.03289203  0.03282173  0.03282173       0.013
   0.03542219  0.03534647  0.03534647       0.013
   0.03795234  0.03787122  0.03787122       0.013
   0.04048250  0.04039597  0.04039597       0.013
   0.04301266  0.04292072  0.04292072       0.013
   0.04554281  0.04544547  0.04544547       0.013
   0.04807297  0.04797021  0.04797021       0.013
 
 k-points in reciprocal lattice and weights: cs2agfecl6_band                         
   0.50000000  0.00000000  0.00000000       0.013
   0.50000000  0.02631579  0.02631579       0.013
   0.50000000  0.05263158  0.05263158       0.013
   0.50000000  0.07894737  0.07894737       0.013
   0.50000000  0.10526316  0.10526316       0.013
   0.50000000  0.13157895  0.13157895       0.013
   0.50000000  0.15789474  0.15789474       0.013
   0.50000000  0.18421053  0.18421053       0.013
   0.50000000  0.21052632  0.21052632       0.013
   0.50000000  0.23684211  0.23684211       0.013
   0.50000000  0.26315789  0.26315789       0.013
   0.50000000  0.28947368  0.28947368       0.013
   0.50000000  0.31578947  0.31578947       0.013
   0.50000000  0.34210526  0.34210526       0.013
   0.50000000  0.36842105  0.36842105       0.013
   0.50000000  0.39473684  0.39473684       0.013
   0.50000000  0.42105263  0.42105263       0.013
   0.50000000  0.44736842  0.44736842       0.013
   0.50000000  0.47368421  0.47368421       0.013
   0.50000000  0.50000000  0.50000000       0.013
   0.50000000  0.50000000  0.50000000       0.013
   0.50000000  0.50000000  0.47368421       0.013
   0.50000000  0.50000000  0.44736842       0.013
   0.50000000  0.50000000  0.42105263       0.013
   0.50000000  0.50000000  0.39473684       0.013
   0.50000000  0.50000000  0.36842105       0.013
   0.50000000  0.50000000  0.34210526       0.013
   0.50000000  0.50000000  0.31578947       0.013
   0.50000000  0.50000000  0.28947368       0.013
   0.50000000  0.50000000  0.26315789       0.013
   0.50000000  0.50000000  0.23684211       0.013
   0.50000000  0.50000000  0.21052632       0.013
   0.50000000  0.50000000  0.18421053       0.013
   0.50000000  0.50000000  0.15789474       0.013
   0.50000000  0.50000000  0.13157895       0.013
   0.50000000  0.50000000  0.10526316       0.013
   0.50000000  0.50000000  0.07894737       0.013
   0.50000000  0.50000000  0.05263158       0.013
   0.50000000  0.50000000  0.02631579       0.013
   0.50000000  0.50000000  0.00000000       0.013
   0.50000000  0.50000000  0.00000000       0.013
   0.47368421  0.47368421  0.00000000       0.013
   0.44736842  0.44736842  0.00000000       0.013
   0.42105263  0.42105263  0.00000000       0.013
   0.39473684  0.39473684  0.00000000       0.013
   0.36842105  0.36842105  0.00000000       0.013
   0.34210526  0.34210526  0.00000000       0.013
   0.31578947  0.31578947  0.00000000       0.013
   0.28947368  0.28947368  0.00000000       0.013
   0.26315789  0.26315789  0.00000000       0.013
   0.23684211  0.23684211  0.00000000       0.013
   0.21052632  0.21052632  0.00000000       0.013
   0.18421053  0.18421053  0.00000000       0.013
   0.15789474  0.15789474  0.00000000       0.013
   0.13157895  0.13157895  0.00000000       0.013
   0.10526316  0.10526316  0.00000000       0.013
   0.07894737  0.07894737  0.00000000       0.013
   0.05263158  0.05263158  0.00000000       0.013
   0.02631579  0.02631579  0.00000000       0.013
   0.00000000  0.00000000  0.00000000       0.013
   0.00000000  0.00000000  0.00000000       0.013
   0.02631579  0.02631579  0.02631579       0.013
   0.05263158  0.05263158  0.05263158       0.013
   0.07894737  0.07894737  0.07894737       0.013
   0.10526316  0.10526316  0.10526316       0.013
   0.13157895  0.13157895  0.13157895       0.013
   0.15789474  0.15789474  0.15789474       0.013
   0.18421053  0.18421053  0.18421053       0.013
   0.21052632  0.21052632  0.21052632       0.013
   0.23684211  0.23684211  0.23684211       0.013
   0.26315789  0.26315789  0.26315789       0.013
   0.28947368  0.28947368  0.28947368       0.013
   0.31578947  0.31578947  0.31578947       0.013
   0.34210526  0.34210526  0.34210526       0.013
   0.36842105  0.36842105  0.36842105       0.013
   0.39473684  0.39473684  0.39473684       0.013
   0.42105263  0.42105263  0.42105263       0.013
   0.44736842  0.44736842  0.44736842       0.013
   0.47368421  0.47368421  0.47368421       0.013
   0.50000000  0.50000000  0.50000000       0.013
 
 position of ions in fractional coordinates (direct lattice) 
   0.25000000  0.75000002  0.75000002
   0.75000002  0.25000000  0.25000000
   0.75000002  0.25000000  0.75000002
   0.25000000  0.75000002  0.25000000
   0.75000002  0.75000002  0.25000000
   0.25000000  0.25000000  0.75000002
   0.25000000  0.25000000  0.25000000
   0.75000002  0.75000002  0.75000002
   0.50000000  0.00000000  0.50000000
   0.50000000  0.50000000  0.00000000
   0.00000000  0.50000000  0.50000000
   0.00000000  0.00000000  0.00000000
   0.50000000  0.50000000  0.50000000
   0.50000000  0.00000000  0.00000000
   0.00000000  0.50000000  0.00000000
   0.00000000  0.00000000  0.50000000
   0.50000000  0.73352522  0.50000000
   0.50000000  0.26647478  0.50000000
   0.50000000  0.50000000  0.73352522
   0.50000000  0.50000000  0.26647478
   0.73392302  0.50000000  0.50000000
   0.26607698  0.50000000  0.50000000
   0.50000000  0.23352527  0.00000000
   0.50000000  0.76647478  0.00000000
   0.50000000  0.00000000  0.23352527
   0.50000000  0.00000000  0.76647478
   0.73392302  0.00000000  0.00000000
   0.26607698  0.00000000  0.00000000
   0.00000000  0.73352522  0.00000000
   0.00000000  0.26647478  0.00000000
   0.00000000  0.50000000  0.23352527
   0.00000000  0.50000000  0.76647478
   0.23392307  0.50000000  0.00000000
   0.76607698  0.50000000  0.00000000
   0.00000000  0.23352527  0.50000000
   0.00000000  0.76647478  0.50000000
   0.00000000  0.00000000  0.73352522
   0.00000000  0.00000000  0.26647478
   0.23392307  0.00000000  0.50000000
   0.76607698  0.00000000  0.50000000
 
 position of ions in cartesian coordinates  (Angst):
   2.60021385  7.81735127  7.81735127
   7.80064180  2.60578368  2.60578368
   7.80064180  2.60578368  7.81735127
   2.60021385  7.81735127  2.60578368
   7.80064180  7.81735127  2.60578368
   2.60021385  2.60578368  7.81735127
   2.60021385  2.60578368  2.60578368
   7.80064180  7.81735127  7.81735127
   5.20042771  0.00000000  5.21156735
   5.20042771  5.21156735  0.00000000
   0.00000000  5.21156735  5.21156735
   0.00000000  0.00000000  0.00000000
   5.20042771  5.21156735  5.21156735
   5.20042771  0.00000000  0.00000000
   0.00000000  5.21156735  0.00000000
   0.00000000  0.00000000  5.21156735
   5.20042771  7.64563219  5.21156735
   5.20042771  2.77750251  5.21156735
   5.20042771  5.21156735  7.64563219
   5.20042771  5.21156735  2.77750251
   7.63342723  5.21156735  5.21156735
   2.76742818  5.21156735  5.21156735
   5.20042771  2.43406532  0.00000000
   5.20042771  7.98906986  0.00000000
   5.20042771  0.00000000  2.43406532
   5.20042771  0.00000000  7.98906986
   7.63342723  0.00000000  0.00000000
   2.76742818  0.00000000  0.00000000
   0.00000000  7.64563219  0.00000000
   0.00000000  2.77750251  0.00000000
   0.00000000  5.21156735  2.43406532
   0.00000000  5.21156735  7.98906986
   2.43300000  5.21156735  0.00000000
   7.96785589  5.21156735  0.00000000
   0.00000000  2.43406532  5.21156735
   0.00000000  7.98906986  5.21156735
   0.00000000  0.00000000  7.64563219
   0.00000000  0.00000000  2.77750251
   2.43300000  0.00000000  5.21156735
   7.96785589  0.00000000  5.21156735
 


--------------------------------------------------------------------------------------------------------


 k-point  1 :   0.5000 0.0000 0.0000  plane waves:   49494
 k-point  2 :   0.5000 0.0263 0.0263  plane waves:   49538
 k-point  3 :   0.5000 0.0526 0.0526  plane waves:   49546
 k-point  4 :   0.5000 0.0789 0.0789  plane waves:   49596
 k-point  5 :   0.5000 0.1053 0.1053  plane waves:   49582
 k-point  6 :   0.5000 0.1316 0.1316  plane waves:   49572
 k-point  7 :   0.5000 0.1579 0.1579  plane waves:   49532
 k-point  8 :   0.5000 0.1842 0.1842  plane waves:   49544
 k-point  9 :   0.5000 0.2105 0.2105  plane waves:   49544
 k-point 10 :   0.5000 0.2368 0.2368  plane waves:   49542
 k-point 11 :   0.5000 0.2632 0.2632  plane waves:   49546
 k-point 12 :   0.5000 0.2895 0.2895  plane waves:   49536
 k-point 13 :   0.5000 0.3158 0.3158  plane waves:   49562
 k-point 14 :   0.5000 0.3421 0.3421  plane waves:   49550
 k-point 15 :   0.5000 0.3684 0.3684  plane waves:   49574
 k-point 16 :   0.5000 0.3947 0.3947  plane waves:   49584
 k-point 17 :   0.5000 0.4211 0.4211  plane waves:   49550
 k-point 18 :   0.5000 0.4474 0.4474  plane waves:   49560
 k-point 19 :   0.5000 0.4737 0.4737  plane waves:   49566
 k-point 20 :   0.5000 0.5000 0.5000  plane waves:   49600
 k-point 21 :   0.5000 0.5000 0.5000  plane waves:   49600
 k-point 22 :   0.5000 0.5000 0.4737  plane waves:   49604
 k-point 23 :   0.5000 0.5000 0.4474  plane waves:   49548
 k-point 24 :   0.5000 0.5000 0.4211  plane waves:   49540
 k-point 25 :   0.5000 0.5000 0.3947  plane waves:   49540
 k-point 26 :   0.5000 0.5000 0.3684  plane waves:   49580
 k-point 27 :   0.5000 0.5000 0.3421  plane waves:   49604
 k-point 28 :   0.5000 0.5000 0.3158  plane waves:   49580
 k-point 29 :   0.5000 0.5000 0.2895  plane waves:   49580
 k-point 30 :   0.5000 0.5000 0.2632  plane waves:   49552
 k-point 31 :   0.5000 0.5000 0.2368  plane waves:   49564
 k-point 32 :   0.5000 0.5000 0.2105  plane waves:   49584
 k-point 33 :   0.5000 0.5000 0.1842  plane waves:   49596
 k-point 34 :   0.5000 0.5000 0.1579  plane waves:   49592
 k-point 35 :   0.5000 0.5000 0.1316  plane waves:   49584
 k-point 36 :   0.5000 0.5000 0.1053  plane waves:   49608
 k-point 37 :   0.5000 0.5000 0.0789  plane waves:   49600
 k-point 38 :   0.5000 0.5000 0.0526  plane waves:   49640
 k-point 39 :   0.5000 0.5000 0.0263  plane waves:   49664
 k-point 40 :   0.5000 0.5000 0.0000  plane waves:   49664
 k-point 41 :   0.5000 0.5000 0.0000  plane waves:   49664
 k-point 42 :   0.4737 0.4737 0.0000  plane waves:   49637
 k-point 43 :   0.4474 0.4474 0.0000  plane waves:   49612
 k-point 44 :   0.4211 0.4211 0.0000  plane waves:   49604
 k-point 45 :   0.3947 0.3947 0.0000  plane waves:   49599
 k-point 46 :   0.3684 0.3684 0.0000  plane waves:   49603
 k-point 47 :   0.3421 0.3421 0.0000  plane waves:   49602
 k-point 48 :   0.3158 0.3158 0.0000  plane waves:   49593
 k-point 49 :   0.2895 0.2895 0.0000  plane waves:   49568
 k-point 50 :   0.2632 0.2632 0.0000  plane waves:   49555
 k-point 51 :   0.2368 0.2368 0.0000  plane waves:   49551
 k-point 52 :   0.2105 0.2105 0.0000  plane waves:   49554
 k-point 53 :   0.1842 0.1842 0.0000  plane waves:   49565
 k-point 54 :   0.1579 0.1579 0.0000  plane waves:   49560
 k-point 55 :   0.1316 0.1316 0.0000  plane waves:   49563
 k-point 56 :   0.1053 0.1053 0.0000  plane waves:   49556
 k-point 57 :   0.0789 0.0789 0.0000  plane waves:   49546
 k-point 58 :   0.0526 0.0526 0.0000  plane waves:   49557
 k-point 59 :   0.0263 0.0263 0.0000  plane waves:   49512
 k-point 60 :   0.0000 0.0000 0.0000  plane waves:   49509
 k-point 61 :   0.0000 0.0000 0.0000  plane waves:   49509
 k-point 62 :   0.0263 0.0263 0.0263  plane waves:   49535
 k-point 63 :   0.0526 0.0526 0.0526  plane waves:   49552
 k-point 64 :   0.0789 0.0789 0.0789  plane waves:   49560
 k-point 65 :   0.1053 0.1053 0.1053  plane waves:   49573
 k-point 66 :   0.1316 0.1316 0.1316  plane waves:   49576
 k-point 67 :   0.1579 0.1579 0.1579  plane waves:   49609
 k-point 68 :   0.1842 0.1842 0.1842  plane waves:   49605
 k-point 69 :   0.2105 0.2105 0.2105  plane waves:   49600
 k-point 70 :   0.2368 0.2368 0.2368  plane waves:   49607
 k-point 71 :   0.2632 0.2632 0.2632  plane waves:   49587
 k-point 72 :   0.2895 0.2895 0.2895  plane waves:   49577
 k-point 73 :   0.3158 0.3158 0.3158  plane waves:   49573
 k-point 74 :   0.3421 0.3421 0.3421  plane waves:   49557
 k-point 75 :   0.3684 0.3684 0.3684  plane waves:   49593
 k-point 76 :   0.3947 0.3947 0.3947  plane waves:   49609
 k-point 77 :   0.4211 0.4211 0.4211  plane waves:   49597
 k-point 78 :   0.4474 0.4474 0.4474  plane waves:   49578
 k-point 79 :   0.4737 0.4737 0.4737  plane waves:   49593
 k-point 80 :   0.5000 0.5000 0.5000  plane waves:   49600

 maximum and minimum number of plane-waves per node :     49664    49494

 maximum number of plane-waves:     49664
 maximum index in each direction: 
   IXMAX=   22   IYMAX=   22   IZMAX=   22
   IXMIN=  -23   IYMIN=  -23   IZMIN=  -23


 serial   3D FFT for wavefunctions
 parallel 3D FFT for charge:
    minimum data exchange during FFTs selected (reduces bandwidth)


 total amount of memory used by VASP MPI-rank0  3486785. kBytes
=======================================================================

   base      :      30000. kBytes
   nonl-proj :    2320675. kBytes
   fftplans  :      12348. kBytes
   grid      :      96061. kBytes
   one-center:       1244. kBytes
   wavefun   :    1026457. kBytes
 
     INWAV:  cpu time    0.0000: real time    0.0002
 Broyden mixing: mesh for mixing (old mesh)
   NGX = 45   NGY = 45   NGZ = 45
  (NGX  =192   NGY  =192   NGZ  =192)
  gives a total of  91125 points

 initial charge density was supplied:
 charge density of overlapping atoms calculated
 number of electron     348.0000000 magnetization       0.0000000
 keeping initial charge density in first step


--------------------------------------------------------------------------------------------------------


 Maximum index for augmentation-charges         1438 (set IRDMAX)


--------------------------------------------------------------------------------------------------------


 First call to EWALD:  gamma=   0.170
 Maximum number of real-space cells 3x 3x 3
 Maximum number of reciprocal cells 3x 3x 3

    FEWALD:  cpu time    0.0024: real time    0.0028


--------------------------------------- Iteration      1(   1)  ---------------------------------------


    POTLOK:  cpu time    0.6015: real time    0.6129
    SETDIJ:  cpu time    0.0272: real time    0.0315
     EDDAV:  cpu time 1620.0792: real time 1632.9099
       DOS:  cpu time    0.0092: real time    0.0198
    --------------------------------------------
      LOOP:  cpu time 1620.7171: real time 1633.5741

 eigenvalue-minimisations  : 79044
 total energy-change (2. order) : 0.3539330E+04  (-0.1977554E+05)
 number of electron     348.0000000 magnetization      -0.0000000
 augmentation part      348.0000000 magnetization      -0.0000000

 Free energy of the ion-electron system (eV)
  ---------------------------------------------------
  alpha Z        PSCENC =       968.67760091
  Ewald energy   TEWEN  =    -19651.57506736
  -Hartree energ DENC   =    -11534.36159940
  -exchange      EXHF   =         0.00000000
  -V(xc)+E(xc)   XCENC  =       978.74188369
  PAW double counting   =     20303.43500004   -19924.13088939
  entropy T*S    EENTRO =        -0.00088946
  eigenvalues    EBANDS =       459.38940056
  atomic energy  EATOM  =     31939.15428920
  Solvation  Ediel_sol  =         0.00000000
  ---------------------------------------------------
  free energy    TOTEN  =      3539.32972879 eV

  energy without entropy =     3539.33061825  energy(sigma->0) =     3539.33017352


--------------------------------------------------------------------------------------------------------




--------------------------------------- Iteration      1(   2)  ---------------------------------------


     EDDAV:  cpu time 1632.7381: real time 1645.2646
       DOS:  cpu time    0.0034: real time    0.0034
    --------------------------------------------
      LOOP:  cpu time 1632.7415: real time 1645.2681

 eigenvalue-minimisations  : 81368
 total energy-change (2. order) :-0.3197896E+04  (-0.2989573E+04)
 number of electron     348.0000000 magnetization      -0.0000000
 augmentation part      348.0000000 magnetization      -0.0000000

 Free energy of the ion-electron system (eV)
  ---------------------------------------------------
  alpha Z        PSCENC =       968.67760091
  Ewald energy   TEWEN  =    -19651.57506736
  -Hartree energ DENC   =    -11534.36159940
  -exchange      EXHF   =         0.00000000
  -V(xc)+E(xc)   XCENC  =       978.74188369
  PAW double counting   =     20303.43500004   -19924.13088939
  entropy T*S    EENTRO =        -0.00000000
  eigenvalues    EBANDS =     -2738.50784835
  atomic energy  EATOM  =     31939.15428920
  Solvation  Ediel_sol  =         0.00000000
  ---------------------------------------------------
  free energy    TOTEN  =       341.43336934 eV

  energy without entropy =      341.43336934  energy(sigma->0) =      341.43336934


--------------------------------------------------------------------------------------------------------




--------------------------------------- Iteration      1(   3)  ---------------------------------------


     EDDAV:  cpu time 2030.6300: real time 2045.2080
       DOS:  cpu time    0.0034: real time    0.0034
    --------------------------------------------
      LOOP:  cpu time 2030.6334: real time 2045.2114

 eigenvalue-minimisations  :102984
 total energy-change (2. order) :-0.4685718E+03  (-0.4644222E+03)
 number of electron     348.0000000 magnetization      -0.0000000
 augmentation part      348.0000000 magnetization      -0.0000000

 Free energy of the ion-electron system (eV)
  ---------------------------------------------------
  alpha Z        PSCENC =       968.67760091
  Ewald energy   TEWEN  =    -19651.57506736
  -Hartree energ DENC   =    -11534.36159940
  -exchange      EXHF   =         0.00000000
  -V(xc)+E(xc)   XCENC  =       978.74188369
  PAW double counting   =     20303.43500004   -19924.13088939
  entropy T*S    EENTRO =        -0.00000000
  eigenvalues    EBANDS =     -3207.07959996
  atomic energy  EATOM  =     31939.15428920
  Solvation  Ediel_sol  =         0.00000000
  ---------------------------------------------------
  free energy    TOTEN  =      -127.13838227 eV

  energy without entropy =     -127.13838227  energy(sigma->0) =     -127.13838227


--------------------------------------------------------------------------------------------------------




--------------------------------------- Iteration      1(   4)  ---------------------------------------


     EDDAV:  cpu time 2119.1207: real time 2150.8358
       DOS:  cpu time    0.0340: real time    0.0340
    --------------------------------------------
      LOOP:  cpu time 2119.1547: real time 2150.8698

 eigenvalue-minimisations  :109928
 total energy-change (2. order) :-0.2083602E+02  (-0.2073014E+02)
 number of electron     348.0000000 magnetization      -0.0000000
 augmentation part      348.0000000 magnetization      -0.0000000

 Free energy of the ion-electron system (eV)
  ---------------------------------------------------
  alpha Z        PSCENC =       968.67760091
  Ewald energy   TEWEN  =    -19651.57506736
  -Hartree energ DENC   =    -11534.36159940
  -exchange      EXHF   =         0.00000000
  -V(xc)+E(xc)   XCENC  =       978.74188369
  PAW double counting   =     20303.43500004   -19924.13088939
  entropy T*S    EENTRO =        -0.00000000
  eigenvalues    EBANDS =     -3227.91562414
  atomic energy  EATOM  =     31939.15428920
  Solvation  Ediel_sol  =         0.00000000
  ---------------------------------------------------
  free energy    TOTEN  =      -147.97440645 eV

  energy without entropy =     -147.97440645  energy(sigma->0) =     -147.97440645


--------------------------------------------------------------------------------------------------------




--------------------------------------- Iteration      1(   5)  ---------------------------------------


     EDDAV:  cpu time 2330.2026: real time 2366.3655
       DOS:  cpu time    0.0034: real time    0.0034
    CHARGE:  cpu time   60.3964: real time   63.9527
    MIXING:  cpu time    0.0178: real time    0.0236
    --------------------------------------------
      LOOP:  cpu time 2390.6203: real time 2430.3453

 eigenvalue-minimisations  :123900
 total energy-change (2. order) :-0.1441955E+01  (-0.1440302E+01)
 number of electron     347.9999896 magnetization       0.0000000
 augmentation part        1.8180082 magnetization       0.0000000

 Broyden mixing:
  rms(total) = 0.45893E+01    rms(broyden)= 0.45889E+01
  rms(prec ) = 0.52820E+01
  weight for this iteration     100.00

 Free energy of the ion-electron system (eV)
  ---------------------------------------------------
  alpha Z        PSCENC =       968.67760091
  Ewald energy   TEWEN  =    -19651.57506736
  -Hartree energ DENC   =    -11534.36159940
  -exchange      EXHF   =         0.00000000
  -V(xc)+E(xc)   XCENC  =       978.74188369
  PAW double counting   =     20303.43500004   -19924.13088939
  entropy T*S    EENTRO =        -0.00000000
  eigenvalues    EBANDS =     -3229.35757880
  atomic energy  EATOM  =     31939.15428920
  Solvation  Ediel_sol  =         0.00000000
  ---------------------------------------------------
  free energy    TOTEN  =      -149.41636111 eV

  energy without entropy =     -149.41636111  energy(sigma->0) =     -149.41636111


--------------------------------------------------------------------------------------------------------




--------------------------------------- Iteration      1(   6)  ---------------------------------------


    POTLOK:  cpu time    0.5737: real time    0.5770
    SETDIJ:  cpu time    0.0259: real time    0.0258
     EDDAV:  cpu time 2322.3940: real time 2397.1292
       DOS:  cpu time    0.0033: real time    0.0033
    CHARGE:  cpu time   63.5156: real time   63.9489
    MIXING:  cpu time    0.0160: real time    0.0180
    --------------------------------------------
      LOOP:  cpu time 2386.5284: real time 2461.7022

 eigenvalue-minimisations  :124824
 total energy-change (2. order) : 0.2289888E+02  (-0.1051546E+02)
 number of electron     347.9999886 magnetization       0.0000000
 augmentation part        3.9432396 magnetization       0.0000000

 Broyden mixing:
  rms(total) = 0.21604E+01    rms(broyden)= 0.21597E+01
  rms(prec ) = 0.22536E+01
  weight for this iteration     100.00

 eigenvalues of (default mixing * dielectric matrix)
  average eigenvalue GAMMA=   0.6808
  0.6808

 Free energy of the ion-electron system (eV)
  ---------------------------------------------------
  alpha Z        PSCENC =       968.67760091
  Ewald energy   TEWEN  =    -19651.57506736
  -Hartree energ DENC   =    -11167.08246500
  -exchange      EXHF   =         0.00000000
  -V(xc)+E(xc)   XCENC  =       965.26302162
  PAW double counting   =     19962.11451917   -19577.49951201
  entropy T*S    EENTRO =        -0.00000000
  eigenvalues    EBANDS =     -3565.56986670
  atomic energy  EATOM  =     31939.15428920
  Solvation  Ediel_sol  =         0.00000000
  ---------------------------------------------------
  free energy    TOTEN  =      -126.51748018 eV

  energy without entropy =     -126.51748018  energy(sigma->0) =     -126.51748018


--------------------------------------------------------------------------------------------------------




--------------------------------------- Iteration      1(   7)  ---------------------------------------


    POTLOK:  cpu time    0.5860: real time    0.5872
    SETDIJ:  cpu time    0.0245: real time    0.0248
     EDDAV:  cpu time 1910.6079: real time 1925.3640
       DOS:  cpu time    0.0034: real time    0.0034
    CHARGE:  cpu time   65.0125: real time   65.4402
    MIXING:  cpu time    0.0158: real time    0.0158
    --------------------------------------------
      LOOP:  cpu time 1976.2502: real time 1991.4354

 eigenvalue-minimisations  : 95256
 total energy-change (2. order) :-0.5279503E+01  (-0.1872552E+01)
 number of electron     347.9999883 magnetization       0.0000000
 augmentation part        4.3256874 magnetization       0.0000000

 Broyden mixing:
  rms(total) = 0.10026E+01    rms(broyden)= 0.10018E+01
  rms(prec ) = 0.11351E+01
  weight for this iteration     100.00

 eigenvalues of (default mixing * dielectric matrix)
  average eigenvalue GAMMA=   0.6550
  0.7045  0.6056

 Free energy of the ion-electron system (eV)
  ---------------------------------------------------
  alpha Z        PSCENC =       968.67760091
  Ewald energy   TEWEN  =    -19651.57506736
  -Hartree energ DENC   =    -11195.23860591
  -exchange      EXHF   =         0.00000000
  -V(xc)+E(xc)   XCENC  =       968.12807627
  PAW double counting   =     20045.18126327   -19675.93085725
  entropy T*S    EENTRO =        -0.00000000
  eigenvalues    EBANDS =     -3530.19368185
  atomic energy  EATOM  =     31939.15428920
  Solvation  Ediel_sol  =         0.00000000
  ---------------------------------------------------
  free energy    TOTEN  =      -131.79698273 eV

  energy without entropy =     -131.79698273  energy(sigma->0) =     -131.79698273


--------------------------------------------------------------------------------------------------------




--------------------------------------- Iteration      1(   8)  ---------------------------------------


    POTLOK:  cpu time    0.6107: real time    0.6124
    SETDIJ:  cpu time    0.0259: real time    0.0260
     EDDAV:  cpu time 2143.1557: real time 2159.1817
       DOS:  cpu time    0.0035: real time    0.0035
    CHARGE:  cpu time   64.0938: real time   65.0552
    MIXING:  cpu time    0.0163: real time    0.0163
    --------------------------------------------
      LOOP:  cpu time 2207.9060: real time 2224.8951

 eigenvalue-minimisations  :109340
 total energy-change (2. order) : 0.7987030E-01  (-0.2649902E+00)
 number of electron     347.9999887 magnetization       0.0000000
 augmentation part        3.9215485 magnetization       0.0000000

 Broyden mixing:
  rms(total) = 0.44479E+00    rms(broyden)= 0.44473E+00
  rms(prec ) = 0.51850E+00
  weight for this iteration     100.00

 eigenvalues of (default mixing * dielectric matrix)
  average eigenvalue GAMMA=   0.8306
  0.9450  0.9450  0.6019

 Free energy of the ion-electron system (eV)
  ---------------------------------------------------
  alpha Z        PSCENC =       968.67760091
  Ewald energy   TEWEN  =    -19651.57506736
  -Hartree energ DENC   =    -11235.97132119
  -exchange      EXHF   =         0.00000000
  -V(xc)+E(xc)   XCENC  =       969.19845266
  PAW double counting   =     20127.24538982   -19754.04835904
  entropy T*S    EENTRO =        -0.00000000
  eigenvalues    EBANDS =     -3494.39809742
  atomic energy  EATOM  =     31939.15428920
  Solvation  Ediel_sol  =         0.00000000
  ---------------------------------------------------
  free energy    TOTEN  =      -131.71711243 eV

  energy without entropy =     -131.71711243  energy(sigma->0) =     -131.71711243


--------------------------------------------------------------------------------------------------------




--------------------------------------- Iteration      1(   9)  ---------------------------------------


    POTLOK:  cpu time    0.5896: real time    0.5934
    SETDIJ:  cpu time    0.0246: real time    0.0246
     EDDAV:  cpu time 1914.9222: real time 1950.4354
       DOS:  cpu time    0.0033: real time    0.0033
    CHARGE:  cpu time   64.0873: real time   64.6565
    MIXING:  cpu time    0.0159: real time    0.0159
    --------------------------------------------
      LOOP:  cpu time 1979.6429: real time 2015.7292

 eigenvalue-minimisations  : 96376
 total energy-change (2. order) :-0.5375475E-01  (-0.8490238E-01)
 number of electron     347.9999887 magnetization       0.0000000
 augmentation part        3.8413688 magnetization       0.0000000

 Broyden mixing:
  rms(total) = 0.16429E+00    rms(broyden)= 0.16424E+00
  rms(prec ) = 0.19571E+00
  weight for this iteration     100.00

 eigenvalues of (default mixing * dielectric matrix)
  average eigenvalue GAMMA=   1.0207
  1.9653  0.7830  0.7830  0.5517

 Free energy of the ion-electron system (eV)
  ---------------------------------------------------
  alpha Z        PSCENC =       968.67760091
  Ewald energy   TEWEN  =    -19651.57506736
  -Hartree energ DENC   =    -11228.21888354
  -exchange      EXHF   =         0.00000000
  -V(xc)+E(xc)   XCENC  =       970.59015276
  PAW double counting   =     20178.06385315   -19800.25575127
  entropy T*S    EENTRO =        -0.00000000
  eigenvalues    EBANDS =     -3508.20706102
  atomic energy  EATOM  =     31939.15428920
  Solvation  Ediel_sol  =         0.00000000
  ---------------------------------------------------
  free energy    TOTEN  =      -131.77086718 eV

  energy without entropy =     -131.77086718  energy(sigma->0) =     -131.77086718


--------------------------------------------------------------------------------------------------------




--------------------------------------- Iteration      1(  10)  ---------------------------------------


    POTLOK:  cpu time    0.5905: real time    0.5916
    SETDIJ:  cpu time    0.0519: real time    0.0519
     EDDAV:  cpu time 2227.6337: real time 2264.6280
       DOS:  cpu time    0.0032: real time    0.0032
    CHARGE:  cpu time   64.0122: real time   64.5996
    MIXING:  cpu time    0.0163: real time    0.0165
    --------------------------------------------
      LOOP:  cpu time 2292.3078: real time 2329.8908

 eigenvalue-minimisations  :115780
 total energy-change (2. order) :-0.1175320E+00  (-0.2998835E-01)
 number of electron     347.9999885 magnetization       0.0000000
 augmentation part        3.9804314 magnetization       0.0000000

 Broyden mixing:
  rms(total) = 0.19944E+00    rms(broyden)= 0.19898E+00
  rms(prec ) = 0.24411E+00
  weight for this iteration     100.00

 eigenvalues of (default mixing * dielectric matrix)
  average eigenvalue GAMMA=   1.0191
  2.0876  0.9268  0.7611  0.6600  0.6600

 Free energy of the ion-electron system (eV)
  ---------------------------------------------------
  alpha Z        PSCENC =       968.67760091
  Ewald energy   TEWEN  =    -19651.57506736
  -Hartree energ DENC   =    -11219.74961879
  -exchange      EXHF   =         0.00000000
  -V(xc)+E(xc)   XCENC  =       970.83569109
  PAW double counting   =     20202.88120250   -19826.10640866
  entropy T*S    EENTRO =        -0.00000000
  eigenvalues    EBANDS =     -3516.00608805
  atomic energy  EATOM  =     31939.15428920
  Solvation  Ediel_sol  =         0.00000000
  ---------------------------------------------------
  free energy    TOTEN  =      -131.88839917 eV

  energy without entropy =     -131.88839917  energy(sigma->0) =     -131.88839917


--------------------------------------------------------------------------------------------------------




--------------------------------------- Iteration      1(  11)  ---------------------------------------


    POTLOK:  cpu time    0.5928: real time    0.5961
    SETDIJ:  cpu time    0.0247: real time    0.0247
     EDDAV:  cpu time 2036.8655: real time 2052.0386
       DOS:  cpu time    0.0035: real time    0.0035
    CHARGE:  cpu time   64.0671: real time   64.6058
    MIXING:  cpu time    0.0164: real time    0.0164
    --------------------------------------------
      LOOP:  cpu time 2101.5699: real time 2117.2850

 eigenvalue-minimisations  :103740
 total energy-change (2. order) : 0.1892499E-01  (-0.1139547E-01)
 number of electron     347.9999886 magnetization       0.0000000
 augmentation part        3.8819040 magnetization       0.0000000

 Broyden mixing:
  rms(total) = 0.40953E-01    rms(broyden)= 0.40873E-01
  rms(prec ) = 0.45632E-01
  weight for this iteration     100.00

 eigenvalues of (default mixing * dielectric matrix)
  average eigenvalue GAMMA=   1.0437
  2.1778  1.3165  0.7573  0.7573  0.6266  0.6266

 Free energy of the ion-electron system (eV)
  ---------------------------------------------------
  alpha Z        PSCENC =       968.67760091
  Ewald energy   TEWEN  =    -19651.57506736
  -Hartree energ DENC   =    -11230.28815717
  -exchange      EXHF   =         0.00000000
  -V(xc)+E(xc)   XCENC  =       970.87832362
  PAW double counting   =     20221.94369005   -19843.70505611
  entropy T*S    EENTRO =        -0.00000000
  eigenvalues    EBANDS =     -3506.95509731
  atomic energy  EATOM  =     31939.15428920
  Solvation  Ediel_sol  =         0.00000000
  ---------------------------------------------------
  free energy    TOTEN  =      -131.86947418 eV

  energy without entropy =     -131.86947418  energy(sigma->0) =     -131.86947418


--------------------------------------------------------------------------------------------------------




--------------------------------------- Iteration      1(  12)  ---------------------------------------


    POTLOK:  cpu time    0.6047: real time    0.6045
    SETDIJ:  cpu time    0.0263: real time    0.0263
     EDDAV:  cpu time 1974.3908: real time 1989.2253
       DOS:  cpu time    0.0070: real time    0.0070
    CHARGE:  cpu time   64.1528: real time   64.6472
    MIXING:  cpu time    0.0171: real time    0.0171
    --------------------------------------------
      LOOP:  cpu time 2039.1987: real time 2054.5273

 eigenvalue-minimisations  :100044
 total energy-change (2. order) :-0.5575183E-02  (-0.1303286E-02)
 number of electron     347.9999886 magnetization       0.0000000
 augmentation part        3.8805583 magnetization       0.0000000

 Broyden mixing:
  rms(total) = 0.24970E-01    rms(broyden)= 0.24963E-01
  rms(prec ) = 0.28261E-01
  weight for this iteration     100.00

 eigenvalues of (default mixing * dielectric matrix)
  average eigenvalue GAMMA=   1.1282
  2.4543  1.7203  1.0157  0.6721  0.6721  0.7214  0.6413

 Free energy of the ion-electron system (eV)
  ---------------------------------------------------
  alpha Z        PSCENC =       968.67760091
  Ewald energy   TEWEN  =    -19651.57506736
  -Hartree energ DENC   =    -11230.95229430
  -exchange      EXHF   =         0.00000000
  -V(xc)+E(xc)   XCENC  =       971.00181241
  PAW double counting   =     20233.74556140   -19855.06744463
  entropy T*S    EENTRO =        -0.00000000
  eigenvalues    EBANDS =     -3506.85950699
  atomic energy  EATOM  =     31939.15428920
  Solvation  Ediel_sol  =         0.00000000
  ---------------------------------------------------
  free energy    TOTEN  =      -131.87504936 eV

  energy without entropy =     -131.87504936  energy(sigma->0) =     -131.87504936


--------------------------------------------------------------------------------------------------------




--------------------------------------- Iteration      1(  13)  ---------------------------------------


    POTLOK:  cpu time    0.6132: real time    0.6152
    SETDIJ:  cpu time    0.0245: real time    0.0247
     EDDAV:  cpu time 2160.6167: real time 2176.0293
       DOS:  cpu time    0.0034: real time    0.0034
    CHARGE:  cpu time   65.6614: real time   66.2052
    MIXING:  cpu time    0.0175: real time    0.0175
    --------------------------------------------
      LOOP:  cpu time 2226.9369: real time 2242.8955

 eigenvalue-minimisations  :111888
 total energy-change (2. order) :-0.1333981E-02  (-0.3015420E-03)
 number of electron     347.9999886 magnetization       0.0000000
 augmentation part        3.8945517 magnetization       0.0000000

 Broyden mixing:
  rms(total) = 0.99130E-02    rms(broyden)= 0.98965E-02
  rms(prec ) = 0.11029E-01
  weight for this iteration     100.00

 eigenvalues of (default mixing * dielectric matrix)
  average eigenvalue GAMMA=   1.1576
  2.6038  1.9164  1.2104  0.6706  0.6706  0.7810  0.7810  0.6271

 Free energy of the ion-electron system (eV)
  ---------------------------------------------------
  alpha Z        PSCENC =       968.67760091
  Ewald energy   TEWEN  =    -19651.57506736
  -Hartree energ DENC   =    -11230.29993219
  -exchange      EXHF   =         0.00000000
  -V(xc)+E(xc)   XCENC  =       971.07056633
  PAW double counting   =     20238.72633968   -19859.90485287
  entropy T*S    EENTRO =        -0.00000000
  eigenvalues    EBANDS =     -3507.72532702
  atomic energy  EATOM  =     31939.15428920
  Solvation  Ediel_sol  =         0.00000000
  ---------------------------------------------------
  free energy    TOTEN  =      -131.87638334 eV

  energy without entropy =     -131.87638334  energy(sigma->0) =     -131.87638334


--------------------------------------------------------------------------------------------------------




--------------------------------------- Iteration      1(  14)  ---------------------------------------


    POTLOK:  cpu time    0.6031: real time    0.6060
    SETDIJ:  cpu time    0.0253: real time    0.0253
     EDDAV:  cpu time 1887.0235: real time 1898.8845
       DOS:  cpu time    0.0072: real time    0.0071
    CHARGE:  cpu time   67.0570: real time   67.4115
    MIXING:  cpu time    0.0194: real time    0.0194
    --------------------------------------------
      LOOP:  cpu time 1954.7356: real time 1966.9539

 eigenvalue-minimisations  : 93240
 total energy-change (2. order) :-0.2570464E-03  (-0.4169883E-04)
 number of electron     347.9999886 magnetization       0.0000000
 augmentation part        3.8955232 magnetization       0.0000000

 Broyden mixing:
  rms(total) = 0.55070E-02    rms(broyden)= 0.55012E-02
  rms(prec ) = 0.64704E-02
  weight for this iteration     100.00

 eigenvalues of (default mixing * dielectric matrix)
  average eigenvalue GAMMA=   1.2007
  2.7017  2.1655  1.3903  1.0208  0.6832  0.6832  0.7589  0.7589  0.6442

 Free energy of the ion-electron system (eV)
  ---------------------------------------------------
  alpha Z        PSCENC =       968.67760091
  Ewald energy   TEWEN  =    -19651.57506736
  -Hartree energ DENC   =    -11230.81865390
  -exchange      EXHF   =         0.00000000
  -V(xc)+E(xc)   XCENC  =       971.09242723
  PAW double counting   =     20241.16874029   -19862.39046015
  entropy T*S    EENTRO =        -0.00000000
  eigenvalues    EBANDS =     -3507.18551660
  atomic energy  EATOM  =     31939.15428920
  Solvation  Ediel_sol  =         0.00000000
  ---------------------------------------------------
  free energy    TOTEN  =      -131.87664039 eV

  energy without entropy =     -131.87664039  energy(sigma->0) =     -131.87664039


--------------------------------------------------------------------------------------------------------




--------------------------------------- Iteration      1(  15)  ---------------------------------------


    POTLOK:  cpu time    0.6037: real time    0.6182
    SETDIJ:  cpu time    0.0257: real time    0.0257
     EDDAV:  cpu time 2180.0679: real time 2196.6555
       DOS:  cpu time    0.0034: real time    0.0034
    CHARGE:  cpu time   68.7362: real time   69.3114
    MIXING:  cpu time    0.0221: real time    0.0221
    --------------------------------------------
      LOOP:  cpu time 2249.4590: real time 2266.6363

 eigenvalue-minimisations  :110908
 total energy-change (2. order) :-0.3046549E-04  (-0.1598559E-04)
 number of electron     347.9999886 magnetization       0.0000000
 augmentation part        3.8921560 magnetization       0.0000000

 Broyden mixing:
  rms(total) = 0.13553E-02    rms(broyden)= 0.13541E-02
  rms(prec ) = 0.16085E-02
  weight for this iteration     100.00

 eigenvalues of (default mixing * dielectric matrix)
  average eigenvalue GAMMA=   1.2281
  2.8618  2.3308  1.6285  1.0843  0.9066  0.6828  0.6828  0.7346  0.7346  0.6339

 Free energy of the ion-electron system (eV)
  ---------------------------------------------------
  alpha Z        PSCENC =       968.67760091
  Ewald energy   TEWEN  =    -19651.57506736
  -Hartree energ DENC   =    -11231.31062367
  -exchange      EXHF   =         0.00000000
  -V(xc)+E(xc)   XCENC  =       971.10596181
  PAW double counting   =     20242.18895574   -19863.44710287
  entropy T*S    EENTRO =        -0.00000000
  eigenvalues    EBANDS =     -3506.67068461
  atomic energy  EATOM  =     31939.15428920
  Solvation  Ediel_sol  =         0.00000000
  ---------------------------------------------------
  free energy    TOTEN  =      -131.87667086 eV

  energy without entropy =     -131.87667086  energy(sigma->0) =     -131.87667086


--------------------------------------------------------------------------------------------------------




--------------------------------------- Iteration      1(  16)  ---------------------------------------


    POTLOK:  cpu time    0.6298: real time    0.6331
    SETDIJ:  cpu time    0.0262: real time    0.0263
     EDDAV:  cpu time 2096.8507: real time 2113.7537
       DOS:  cpu time    0.0034: real time    0.0034
    CHARGE:  cpu time   70.1680: real time   70.6706
    MIXING:  cpu time    0.0230: real time    0.0230
    --------------------------------------------
      LOOP:  cpu time 2167.7010: real time 2185.1101

 eigenvalue-minimisations  :104132
 total energy-change (2. order) :-0.9004500E-05  (-0.2491475E-05)
 number of electron     347.9999886 magnetization       0.0000000
 augmentation part        3.8924549 magnetization       0.0000000

 Broyden mixing:
  rms(total) = 0.12161E-02    rms(broyden)= 0.12157E-02
  rms(prec ) = 0.14726E-02
  weight for this iteration     100.00

 eigenvalues of (default mixing * dielectric matrix)
  average eigenvalue GAMMA=   1.2336
  2.9733  2.4011  1.7592  1.1104  1.1104  0.6822  0.6822  0.7459  0.7459  0.6261
  0.7332

 Free energy of the ion-electron system (eV)
  ---------------------------------------------------
  alpha Z        PSCENC =       968.67760091
  Ewald energy   TEWEN  =    -19651.57506736
  -Hartree energ DENC   =    -11231.28666059
  -exchange      EXHF   =         0.00000000
  -V(xc)+E(xc)   XCENC  =       971.10665931
  PAW double counting   =     20242.08235425   -19863.34409936
  entropy T*S    EENTRO =        -0.00000000
  eigenvalues    EBANDS =     -3506.69175622
  atomic energy  EATOM  =     31939.15428920
  Solvation  Ediel_sol  =         0.00000000
  ---------------------------------------------------
  free energy    TOTEN  =      -131.87667986 eV

  energy without entropy =     -131.87667986  energy(sigma->0) =     -131.87667986


--------------------------------------------------------------------------------------------------------




--------------------------------------- Iteration      1(  17)  ---------------------------------------


    POTLOK:  cpu time    0.6421: real time    0.6433
    SETDIJ:  cpu time    0.0234: real time    0.0258
     EDDAV:  cpu time 2210.1266: real time 2227.8118
       DOS:  cpu time    0.0034: real time    0.0034
    CHARGE:  cpu time   71.5641: real time   72.1047
    MIXING:  cpu time    0.0229: real time    0.0229
    --------------------------------------------
      LOOP:  cpu time 2282.3825: real time 2300.6119

 eigenvalue-minimisations  :110152
 total energy-change (2. order) : 0.2375455E-06  (-0.4146949E-06)
 number of electron     347.9999886 magnetization       0.0000000
 augmentation part        3.8932144 magnetization       0.0000000

 Broyden mixing:
  rms(total) = 0.21232E-03    rms(broyden)= 0.20961E-03
  rms(prec ) = 0.23060E-03
  weight for this iteration     100.00

 eigenvalues of (default mixing * dielectric matrix)
  average eigenvalue GAMMA=   1.2244
[...]
   24        1.596   3.535   0.000   5.131
   25        1.597   3.533   0.000   5.130
   26        1.597   3.533   0.000   5.130
   27        1.596   3.535   0.000   5.131
   28        1.596   3.535   0.000   5.131
   29        1.596   3.535   0.000   5.131
   30        1.596   3.535   0.000   5.131
   31        1.597   3.533   0.000   5.130
   32        1.597   3.533   0.000   5.130
   33        1.596   3.535   0.000   5.131
   34        1.596   3.535   0.000   5.131
   35        1.596   3.535   0.000   5.131
   36        1.596   3.535   0.000   5.131
   37        1.597   3.533   0.000   5.130
   38        1.597   3.533   0.000   5.130
   39        1.596   3.535   0.000   5.131
   40        1.596   3.535   0.000   5.131
--------------------------------------------------
tot         61.812 146.546  56.533 264.890
 


 magnetization (x)
 
# of ion       s       p       d       tot
------------------------------------------
    1       -0.000  -0.000   0.000  -0.000
    2       -0.000  -0.000   0.000  -0.000
    3        0.000   0.000  -0.000   0.000
    4        0.000   0.000  -0.000   0.000
    5        0.000   0.000  -0.000   0.000
    6        0.000   0.000  -0.000   0.000
    7       -0.000  -0.000   0.000  -0.000
    8       -0.000  -0.000   0.000  -0.000
    9        0.005   0.001   0.024   0.030
   10        0.005   0.001   0.024   0.030
   11       -0.005  -0.001  -0.024  -0.030
   12       -0.005  -0.001  -0.024  -0.030
   13        0.012   0.011   3.923   3.946
   14        0.012   0.011   3.923   3.946
   15       -0.012  -0.011  -3.923  -3.946
   16       -0.012  -0.011  -3.923  -3.946
   17        0.004   0.076   0.000   0.080
   18        0.004   0.076   0.000   0.080
   19        0.004   0.076   0.000   0.080
   20        0.004   0.076   0.000   0.080
   21        0.004   0.066   0.000   0.070
   22        0.004   0.066   0.000   0.070
   23        0.004   0.076   0.000   0.080
   24        0.004   0.076   0.000   0.080
   25        0.004   0.076   0.000   0.080
   26        0.004   0.076   0.000   0.080
   27        0.004   0.066   0.000   0.070
   28        0.004   0.066   0.000   0.070
   29       -0.004  -0.076   0.000  -0.080
   30       -0.004  -0.076   0.000  -0.080
   31       -0.004  -0.076   0.000  -0.080
   32       -0.004  -0.076   0.000  -0.080
   33       -0.004  -0.066   0.000  -0.070
   34       -0.004  -0.066   0.000  -0.070
   35       -0.004  -0.076   0.000  -0.080
   36       -0.004  -0.076   0.000  -0.080
   37       -0.004  -0.076   0.000  -0.080
   38       -0.004  -0.076   0.000  -0.080
   39       -0.004  -0.066   0.000  -0.070
   40       -0.004  -0.066   0.000  -0.070
--------------------------------------------------
tot          0.000   0.000  -0.000   0.000
 
    CHARGE:  cpu time   74.3406: real time   74.8696
    FORLOC:  cpu time    0.0665: real time    0.0665
    FORNL :  cpu time  262.9030: real time  263.8098
    STRESS:  cpu time 1677.2620: real time 1706.1816
    FORCOR:  cpu time    0.6306: real time    0.6338
    FORHAR:  cpu time    0.1257: real time    0.1271
    MIXING:  cpu time    0.0226: real time    0.0226
    OFIELD:  cpu time    0.0010: real time    0.0012

  FORCE on cell =-STRESS in cart. coord.  units (eV):
  Direction    XX          YY          ZZ          XY          YZ          ZX
  --------------------------------------------------------------------------------------
  Alpha Z   968.67760   968.67760   968.67760
  Ewald   -6531.37221 -6560.14687 -6560.14687     0.00000     0.00000     0.00000
  Hartree  3752.96132  3739.13103  3739.13103    -0.00000    -0.00000    -0.00000
  E(xc)   -1593.19560 -1593.21964 -1593.21964     0.00000     0.00000     0.00000
  Local   -6151.95981 -6115.80759 -6115.80759    -0.00000    -0.00000    -0.00000
  n-local  2315.47430  2315.23542  2313.67634    -0.01271    -0.04613    -0.00567
  augment  1212.19769  1214.31668  1214.31668     0.00000     0.00000    -0.00000
  Kinetic  6028.32422  6032.04962  6033.83049    -0.13903    -0.26539    -0.06809
  Fock        0.00000     0.00000     0.00000     0.00000     0.00000     0.00000
  -------------------------------------------------------------------------------------
  Total       1.10750     0.34714     0.34714     0.00000     0.00000     0.00000
  in kB       1.57033     0.49221     0.49221     0.00000     0.00000     0.00000
  external pressure =        0.85 kB  Pullay stress =        0.00 kB


 VOLUME and BASIS-vectors are now :
 -----------------------------------------------------------------------------
  energy-cutoff  :      720.00
  volume of cell :     1129.97
      direct lattice vectors                 reciprocal lattice vectors
    10.400855412  0.000000000  0.000000000     0.096145938  0.000000000  0.000000000
     0.000000000 10.423134701  0.000000000     0.000000000  0.095940428  0.000000000
     0.000000000  0.000000000 10.423134701     0.000000000  0.000000000  0.095940428

  length of vectors
    10.400855412 10.423134701 10.423134701     0.096145938  0.095940428  0.095940428


 FORCES acting on ions
    electron-ion (+dipol)            ewald-force                    non-local-force                 convergence-correction
 -----------------------------------------------------------------------------------------------
   0.966E-06 -.122E-03 -.122E-03   -.178E-05 -.367E-04 -.367E-04   0.356E-19 0.678E-20 0.508E-19   -.504E-06 0.588E-06 0.588E-06
   -.122E-03 0.953E-06 0.953E-06   -.365E-04 -.188E-05 -.188E-05   0.339E-20 0.339E-20 -.136E-19   0.580E-06 -.510E-06 -.510E-06
   -.122E-03 0.953E-06 -.122E-03   -.365E-04 -.188E-05 -.367E-04   -.322E-19 -.169E-19 0.364E-19   0.580E-06 -.510E-06 0.588E-06
   0.966E-06 -.122E-03 0.953E-06   -.178E-05 -.367E-04 -.188E-05   0.339E-20 0.169E-20 -.762E-20   -.504E-06 0.588E-06 -.510E-06
   -.122E-03 -.122E-03 0.953E-06   -.365E-04 -.367E-04 -.188E-05   -.220E-19 -.678E-20 0.424E-19   0.580E-06 0.588E-06 -.510E-06
   0.966E-06 0.953E-06 -.122E-03   -.178E-05 -.188E-05 -.367E-04   0.339E-20 0.102E-19 -.339E-19   -.504E-06 -.510E-06 0.588E-06
   0.966E-06 0.953E-06 0.953E-06   -.178E-05 -.188E-05 -.188E-05   0.119E-19 0.102E-19 0.432E-19   -.504E-06 -.510E-06 -.510E-06
   -.122E-03 -.122E-03 -.122E-03   -.365E-04 -.367E-04 -.367E-04   -.339E-20 -.186E-19 -.347E-19   0.580E-06 0.588E-06 0.588E-06
   0.840E-05 0.116E-05 0.836E-05   0.586E-04 0.524E-05 0.583E-04   -.371E-21 0.000E+00 0.265E-22   -.308E-06 0.166E-06 -.317E-06
   0.840E-05 0.836E-05 0.116E-05   0.586E-04 0.583E-04 0.524E-05   -.265E-21 -.662E-23 -.159E-21   -.308E-06 -.317E-06 0.166E-06
   0.115E-05 0.836E-05 0.836E-05   0.520E-05 0.583E-04 0.583E-04   0.159E-21 -.662E-23 0.529E-22   0.159E-06 -.317E-06 -.317E-06
   0.115E-05 0.116E-05 0.116E-05   0.520E-05 0.524E-05 0.524E-05   -.463E-22 0.000E+00 0.106E-21   0.159E-06 0.166E-06 0.166E-06
   0.201E-05 0.204E-05 0.204E-05   0.101E-04 0.103E-04 0.103E-04   0.251E-21 -.318E-21 0.529E-21   -.396E-06 -.409E-06 -.409E-06
   0.201E-05 0.167E-04 0.167E-04   0.101E-04 0.119E-03 0.119E-03   -.278E-21 0.132E-22 0.132E-22   -.396E-06 0.243E-06 0.243E-06
   0.166E-04 0.204E-05 0.167E-04   0.119E-03 0.103E-04 0.119E-03   0.212E-21 0.106E-21 -.119E-21   0.233E-06 -.409E-06 0.243E-06
   0.166E-04 0.167E-04 0.204E-05   0.119E-03 0.119E-03 0.103E-04   -.318E-21 0.119E-21 0.000E+00   0.233E-06 0.243E-06 -.409E-06
   0.209E-05 -.153E+03 0.172E-05   0.112E-04 0.154E+03 0.113E-04   0.176E-18 -.547E+00 -.610E-19   -.173E-06 0.146E-03 -.179E-06
   0.209E-05 0.153E+03 0.250E-05   0.112E-04 -.154E+03 0.113E-04   -.461E-18 0.547E+00 -.542E-19   -.173E-06 -.146E-03 -.179E-06
   0.209E-05 0.211E-05 -.153E+03   0.112E-04 0.113E-04 0.154E+03   0.271E-18 0.271E-19 -.547E+00   -.173E-06 -.179E-06 0.146E-03
   0.209E-05 0.211E-05 0.153E+03   0.112E-04 0.113E-04 -.154E+03   0.813E-19 0.745E-19 0.547E+00   -.173E-06 -.179E-06 -.146E-03
   -.152E+03 0.211E-05 0.189E-05   0.153E+03 0.113E-04 0.113E-04   -.475E+00 -.678E-19 -.217E-18   0.148E-03 -.179E-06 -.179E-06
   0.152E+03 0.211E-05 0.233E-05   -.153E+03 0.113E-04 0.113E-04   0.475E+00 0.678E-19 -.407E-18   -.148E-03 -.179E-06 -.179E-06
   0.209E-05 -.153E+03 0.183E-05   0.112E-04 0.154E+03 0.122E-04   0.136E-19 -.547E+00 0.203E-19   -.173E-06 0.146E-03 0.106E-06
   0.209E-05 0.153E+03 0.262E-05   0.112E-04 -.154E+03 0.122E-04   0.271E-18 0.547E+00 0.102E-18   -.173E-06 -.145E-03 0.106E-06
   0.209E-05 0.223E-05 -.153E+03   0.112E-04 0.122E-04 0.154E+03   0.244E-18 -.813E-19 -.547E+00   -.173E-06 0.106E-06 0.146E-03
   0.209E-05 0.223E-05 0.153E+03   0.112E-04 0.122E-04 -.154E+03   0.190E-18 0.678E-20 0.547E+00   -.173E-06 0.106E-06 -.145E-03
   -.152E+03 0.222E-05 0.200E-05   0.153E+03 0.121E-04 0.121E-04   -.475E+00 -.623E-18 -.542E-19   0.148E-03 0.106E-06 0.106E-06
   0.152E+03 0.222E-05 0.244E-05   -.153E+03 0.121E-04 0.121E-04   0.475E+00 0.813E-19 -.813E-19   -.148E-03 0.106E-06 0.106E-06
   0.221E-05 -.153E+03 0.183E-05   0.121E-04 0.154E+03 0.122E-04   0.949E-19 -.547E+00 0.203E-19   0.102E-06 0.146E-03 0.106E-06
   0.221E-05 0.153E+03 0.262E-05   0.121E-04 -.154E+03 0.122E-04   -.271E-19 0.547E+00 -.136E-19   0.102E-06 -.146E-03 0.106E-06
   0.221E-05 0.211E-05 -.153E+03   0.121E-04 0.113E-04 0.154E+03   0.108E-18 -.271E-19 -.547E+00   0.102E-06 -.179E-06 0.146E-03
   0.221E-05 0.211E-05 0.153E+03   0.121E-04 0.113E-04 -.154E+03   0.136E-18 -.678E-20 0.547E+00   0.102E-06 -.179E-06 -.145E-03
   -.152E+03 0.211E-05 0.200E-05   0.153E+03 0.113E-04 0.121E-04   -.475E+00 -.136E-19 0.325E-18   0.148E-03 -.179E-06 0.106E-06
   0.152E+03 0.211E-05 0.244E-05   -.153E+03 0.113E-04 0.121E-04   0.475E+00 0.176E-18 -.136E-18   -.147E-03 -.179E-06 0.106E-06
   0.221E-05 -.153E+03 0.172E-05   0.121E-04 0.154E+03 0.113E-04   0.447E-18 -.547E+00 0.474E-19   0.102E-06 0.146E-03 -.179E-06
   0.221E-05 0.153E+03 0.250E-05   0.121E-04 -.154E+03 0.113E-04   -.488E-18 0.547E+00 0.745E-19   0.102E-06 -.145E-03 -.179E-06
   0.221E-05 0.223E-05 -.153E+03   0.121E-04 0.122E-04 0.154E+03   -.813E-19 0.271E-19 -.547E+00   0.102E-06 0.106E-06 0.146E-03
   0.221E-05 0.223E-05 0.153E+03   0.121E-04 0.122E-04 -.154E+03   0.271E-19 0.339E-19 0.547E+00   0.102E-06 0.106E-06 -.146E-03
   -.152E+03 0.222E-05 0.189E-05   0.153E+03 0.121E-04 0.113E-04   -.475E+00 0.407E-18 0.163E-18   0.148E-03 0.106E-06 -.179E-06
   0.152E+03 0.222E-05 0.233E-05   -.153E+03 0.121E-04 0.113E-04   0.475E+00 -.136E-18 0.190E-18   -.147E-03 0.106E-06 -.179E-06
 -----------------------------------------------------------------------------------------------
   -.106E-02 -.106E-02 -.106E-02   0.227E-12 -.428E-13 -.924E-13   -.555E-16 0.332E-18 0.352E-18   -.595E-06 -.607E-06 -.607E-06
 
 
 POSITION                                       TOTAL-FORCE (eV/Angst)
 -----------------------------------------------------------------------------------
      2.60021      7.81735      7.81735        -0.000000      0.000000      0.000000
      7.80064      2.60578      2.60578        -0.000000     -0.000000      0.000000
      7.80064      2.60578      7.81735        -0.000000      0.000000      0.000000
      2.60021      7.81735      2.60578        -0.000000      0.000000     -0.000000
      7.80064      7.81735      2.60578        -0.000000      0.000000     -0.000000
      2.60021      2.60578      7.81735        -0.000000     -0.000000     -0.000000
      2.60021      2.60578      2.60578        -0.000000      0.000000     -0.000000
      7.80064      7.81735      7.81735        -0.000000      0.000000     -0.000000
      5.20043      0.00000      5.21157        -0.000000     -0.000000      0.000000
      5.20043      5.21157      0.00000        -0.000000      0.000000      0.000000
      0.00000      5.21157      5.21157        -0.000000      0.000000      0.000000
      0.00000      0.00000      0.00000        -0.000000     -0.000000      0.000000
      5.20043      5.21157      5.21157        -0.000000      0.000000      0.000000
      5.20043      0.00000      0.00000        -0.000000      0.000000      0.000000
      0.00000      5.21157      0.00000        -0.000000      0.000000      0.000000
      0.00000      0.00000      5.21157        -0.000000      0.000000      0.000000
      5.20043      7.64563      5.21157        -0.000000     -0.049469      0.000000
      5.20043      2.77750      5.21157        -0.000000      0.049469     -0.000000
      5.20043      5.21157      7.64563        -0.000000     -0.000000     -0.049469
      5.20043      5.21157      2.77750        -0.000000      0.000000      0.049469
      7.63343      5.21157      5.21157        -0.027698     -0.000000      0.000000
      2.76743      5.21157      5.21157         0.027698      0.000000     -0.000000
      5.20043      2.43407      0.00000        -0.000000     -0.049469      0.000000
      5.20043      7.98907      0.00000        -0.000000      0.049469      0.000000
      5.20043      0.00000      2.43407        -0.000000     -0.000000     -0.049469
      5.20043      0.00000      7.98907        -0.000000      0.000000      0.049469
      7.63343      0.00000      0.00000        -0.027698     -0.000000      0.000000
      2.76743      0.00000      0.00000         0.027698      0.000000      0.000000
      0.00000      7.64563      0.00000        -0.000000     -0.049469      0.000000
      0.00000      2.77750      0.00000        -0.000000      0.049469      0.000000
      0.00000      5.21157      2.43407        -0.000000     -0.000000     -0.049469
      0.00000      5.21157      7.98907        -0.000000      0.000000      0.049469
      2.43300      5.21157      0.00000        -0.027698     -0.000000     -0.000000
      7.96786      5.21157      0.00000         0.027698      0.000000     -0.000000
      0.00000      2.43407      5.21157        -0.000000     -0.049469     -0.000000
      0.00000      7.98907      5.21157        -0.000000      0.049469      0.000000
      0.00000      0.00000      7.64563        -0.000000      0.000000     -0.049469
      0.00000      0.00000      2.77750        -0.000000     -0.000000      0.049469
      2.43300      0.00000      5.21157        -0.027698      0.000000      0.000000
      7.96786      0.00000      5.21157         0.027698     -0.000000      0.000000
 -----------------------------------------------------------------------------------
    total drift:                               -0.001061     -0.001064     -0.001064


--------------------------------------------------------------------------------------------------------



  FREE ENERGIE OF THE ION-ELECTRON SYSTEM (eV)
  ---------------------------------------------------
  free  energy   TOTEN  =      -131.87667898 eV

  energy  without entropy=     -131.87667898  energy(sigma->0) =     -131.87667898
 


--------------------------------------------------------------------------------------------------------


    POTLOK:  cpu time    0.6709: real time    0.7025


--------------------------------------------------------------------------------------------------------


 writing wavefunctions
     LOOP+:  cpu time43930.5402: real time44453.4789
    4ORBIT:  cpu time    0.0000: real time    0.0000
 


 total charge     
 
# of ion       s       p       d       tot
------------------------------------------
    1        1.835   4.715   0.022   6.572
    2        1.835   4.715   0.022   6.572
    3        1.835   4.715   0.022   6.572
    4        1.835   4.715   0.022   6.572
    5        1.835   4.715   0.022   6.572
    6        1.835   4.715   0.022   6.572
    7        1.835   4.715   0.022   6.572
    8        1.835   4.715   0.022   6.572
    9        0.146   0.097   9.162   9.405
   10        0.146   0.097   9.162   9.405
   11        0.146   0.097   9.162   9.405
   12        0.146   0.097   9.162   9.405
   13        2.057   5.904   4.928  12.889
   14        2.057   5.904   4.928  12.889
   15        2.057   5.904   4.928  12.889
   16        2.057   5.904   4.928  12.889
   17        1.596   3.535   0.000   5.131
   18        1.596   3.535   0.000   5.131
   19        1.597   3.533   0.000   5.130
   20        1.597   3.533   0.000   5.130
   21        1.596   3.535   0.000   5.131
   22        1.596   3.535   0.000   5.131
   23        1.596   3.535   0.000   5.131
   24        1.596   3.535   0.000   5.131
   25        1.597   3.533   0.000   5.130
   26        1.597   3.533   0.000   5.130
   27        1.596   3.535   0.000   5.131
   28        1.596   3.535   0.000   5.131
   29        1.596   3.535   0.000   5.131
   30        1.596   3.535   0.000   5.131
   31        1.597   3.533   0.000   5.130
   32        1.597   3.533   0.000   5.130
   33        1.596   3.535   0.000   5.131
   34        1.596   3.535   0.000   5.131
   35        1.596   3.535   0.000   5.131
   36        1.596   3.535   0.000   5.131
   37        1.597   3.533   0.000   5.130
   38        1.597   3.533   0.000   5.130
   39        1.596   3.535   0.000   5.131
   40        1.596   3.535   0.000   5.131
--------------------------------------------------
tot         61.812 146.546  56.533 264.890
 


 magnetization (x)
 
# of ion       s       p       d       tot
------------------------------------------
    1       -0.000  -0.000   0.000  -0.000
    2       -0.000  -0.000   0.000  -0.000
    3        0.000   0.000  -0.000   0.000
    4        0.000   0.000  -0.000   0.000
    5        0.000   0.000  -0.000   0.000
    6        0.000   0.000  -0.000   0.000
    7       -0.000  -0.000   0.000  -0.000
    8       -0.000  -0.000   0.000  -0.000
    9        0.005   0.001   0.024   0.030
   10        0.005   0.001   0.024   0.030
   11       -0.005  -0.001  -0.024  -0.030
   12       -0.005  -0.001  -0.024  -0.030
   13        0.012   0.011   3.923   3.946
   14        0.012   0.011   3.923   3.946
   15       -0.012  -0.011  -3.923  -3.946
   16       -0.012  -0.011  -3.923  -3.946
   17        0.004   0.076   0.000   0.080
   18        0.004   0.076   0.000   0.080
   19        0.004   0.076   0.000   0.080
   20        0.004   0.076   0.000   0.080
   21        0.004   0.066   0.000   0.070
   22        0.004   0.066   0.000   0.070
   23        0.004   0.076   0.000   0.080
   24        0.004   0.076   0.000   0.080
   25        0.004   0.076   0.000   0.080
   26        0.004   0.076   0.000   0.080
   27        0.004   0.066   0.000   0.070
   28        0.004   0.066   0.000   0.070
   29       -0.004  -0.076   0.000  -0.080
   30       -0.004  -0.076   0.000  -0.080
   31       -0.004  -0.076   0.000  -0.080
   32       -0.004  -0.076   0.000  -0.080
   33       -0.004  -0.066   0.000  -0.070
   34       -0.004  -0.066   0.000  -0.070
   35       -0.004  -0.076   0.000  -0.080
   36       -0.004  -0.076   0.000  -0.080
   37       -0.004  -0.076   0.000  -0.080
   38       -0.004  -0.076   0.000  -0.080
   39       -0.004  -0.066   0.000  -0.070
   40       -0.004  -0.066   0.000  -0.070
--------------------------------------------------
tot          0.000   0.000  -0.000   0.000
 

 total amount of memory used by VASP MPI-rank0  3486785. kBytes
=======================================================================

   base      :      30000. kBytes
   nonl-proj :    2320675. kBytes
   fftplans  :      12348. kBytes
   grid      :      96061. kBytes
   one-center:       1244. kBytes
   wavefun   :    1026457. kBytes
 
  
  
 General timing and accounting informations for this job:
 ========================================================
  
                  Total CPU time used (sec):    44278.605
                            User time (sec):    44101.352
                          System time (sec):      177.252
                         Elapsed time (sec):    44811.509
  
                   Maximum memory used (kb):     3620904.
                   Average memory used (kb):           0.
  
                          Minor page faults:      5255714
                          Major page faults:            0
                 Voluntary context switches:        11746
