 vasp.5.4.4.18Apr17-6-g9f103f2a35 (build Jan 09 2018 19:26:39) complex          
  
 executed on             LinuxIFC date 2020.03.31  15:24:04
 running on   28 total cores
 distrk:  each k-point on   28 cores,    1 groups
 distr:  one band on NCORES_PER_BAND=   1 cores,   28 groups


--------------------------------------------------------------------------------------------------------


 INCAR:
 POTCAR:   PAW_PBE Cs_sv 08Apr2002                
 POTCAR:   PAW_PBE Ag 06Sep2000                   
 POTCAR:   PAW_PBE Fe_sv_h 08Apr2002              
 POTCAR:    PAW_PBE Cl 17Jan2003                  

 ----------------------------------------------------------------------------- 
|                                                                             |
|           W    W    AA    RRRRR   N    N  II  N    N   GGGG   !!!           |
|           W    W   A  A   R    R  NN   N  II  NN   N  G    G  !!!           |
|           W    W  A    A  R    R  N N  N  II  N N  N  G       !!!           |
|           W WW W  AAAAAA  RRRRR   N  N N  II  N  N N  G  GGG   !            |
|           WW  WW  A    A  R   R   N   NN  II  N   NN  G    G                |
|           W    W  A    A  R    R  N    N  II  N    N   GGGG   !!!           |
|                                                                             |
|      For optimal performance we recommend to set                            |
|        NCORE= 4 - approx SQRT( number of cores)                             |
|      NCORE specifies how many cores store one orbital (NPAR=cpu/NCORE).     |
|      This setting can  greatly improve the performance of VASP for DFT.     |
|      The default,   NCORE=1            might be grossly inefficient         |
|      on modern multi-core architectures or massively parallel machines.     |
|      Do your own testing !!!!                                               |
|      Unfortunately you need to use the default for GW and RPA calculations. |
|      (for HF NCORE is supported but not extensively tested yet)             |
|                                                                             |
 ----------------------------------------------------------------------------- 

 POTCAR:   PAW_PBE Cs_sv 08Apr2002                
   VRHFIN =Cs: 5s5p6s                                                           
   LEXCH  = PE                                                                  
   EATOM  =   555.6835 eV,   40.8416 Ry                                         
                                                                                
   TITEL  = PAW_PBE Cs_sv 08Apr2002                                             
   LULTRA =        F    use ultrasoft PP ?                                      
   IUNSCR =        1    unscreen: 0-lin 1-nonlin 2-no                           
   RPACOR =    2.200    partial core radius                                     
   POMASS =  132.900; ZVAL   =    9.000    mass and valenz                      
   RCORE  =    2.500    outmost cutoff radius                                   
   RWIGS  =    2.500; RWIGS  =    1.323    wigner-seitz radius (au A)           
   ENMAX  =  220.318; ENMIN  =  165.238 eV                                      
   RCLOC  =    2.207    cutoff for local pot                                    
   LCOR   =        T    correct aug charges                                     
   LPAW   =        T    paw PP                                                  
   EAUG   =  407.933                                                            
   DEXC   =    -.004                                                            
   RMAX   =    3.106    core radius for proj-oper                               
   RAUG   =    1.300    factor for augmentation sphere                          
   RDEP   =    2.590    radius for radial grids                                 
   QCUT   =   -4.024; QGAM   =    8.048    optimization parameters              
                                                                                
   Description                                                                  
     l     E      TYP  RCUT    TYP  RCUT                                        
     0   .000     23  1.900                                                     
     0   .000     23  1.900                                                     
     0   .000     23  1.900                                                     
     0   .000     23  1.900                                                     
     1   .000     23  2.500                                                     
     1  -.200     23  2.500                                                     
     2   .000     23  2.500                                                     
  local pseudopotential read in
  partial core-charges read in
  atomic valenz-charges read in
  non local Contribution for L=           0  read in
    real space projection operators read in
  non local Contribution for L=           0  read in
    real space projection operators read in
  non local Contribution for L=           1  read in
    real space projection operators read in
  non local Contribution for L=           1  read in
    real space projection operators read in
  non local Contribution for L=           2  read in
    real space projection operators read in
    PAW grid and wavefunctions read in
 
   number of l-projection  operators is LMAX  =           5
   number of lm-projection operators is LMMAX =          13
 
 POTCAR:   PAW_PBE Ag 06Sep2000                   
   VRHFIN =Ag : s1 d10                                                          
   LEXCH  = PE                                                                  
   EATOM  =  1037.4134 eV,   76.2477 Ry                                         
                                                                                
   TITEL  = PAW_PBE Ag 06Sep2000                                                
   LULTRA =        F    use ultrasoft PP ?                                      
   IUNSCR =        1    unscreen: 0-lin 1-nonlin 2-no                           
   RPACOR =    2.000    partial core radius                                     
   POMASS =  107.868; ZVAL   =   11.000    mass and valenz                      
   RCORE  =    2.400    outmost cutoff radius                                   
   RWIGS  =    2.840; RWIGS  =    1.503    wigner-seitz radius (au A)           
   ENMAX  =  249.846; ENMIN  =  187.385 eV                                      
   RCLOC  =    1.962    cutoff for local pot                                    
   LCOR   =        T    correct aug charges                                     
   LPAW   =        T    paw PP                                                  
   EAUG   =  412.496                                                            
   DEXC   =    -.047                                                            
   RMAX   =    2.917    core radius for proj-oper                               
   RAUG   =    1.300    factor for augmentation sphere                          
   RDEP   =    2.416    radius for radial grids                                 
   QCUT   =   -4.285; QGAM   =    8.570    optimization parameters              
                                                                                
   Description                                                                  
     l     E      TYP  RCUT    TYP  RCUT                                        
     2   .000     23  2.400                                                     
     2   .000     23  2.400                                                     
     0   .000     23  2.400                                                     
     0   .000     23  2.400                                                     
     1  -.200     23  2.400                                                     
     1  1.500     23  2.400                                                     
     3   .000      7   .000                                                     
  local pseudopotential read in
  partial core-charges read in
  atomic valenz-charges read in
  non local Contribution for L=           2  read in
    real space projection operators read in
  non local Contribution for L=           2  read in
    real space projection operators read in
  non local Contribution for L=           0  read in
    real space projection operators read in
  non local Contribution for L=           0  read in
    real space projection operators read in
  non local Contribution for L=           1  read in
    real space projection operators read in
  non local Contribution for L=           1  read in
    real space projection operators read in
    PAW grid and wavefunctions read in
 
   number of l-projection  operators is LMAX  =           6
   number of lm-projection operators is LMMAX =          18
 
 POTCAR:   PAW_PBE Fe_sv_h 08Apr2002              
   VRHFIN =Fe:  d7 s1                                                           
   LEXCH  = PE                                                                  
   EATOM  =  3377.7268 eV,  248.2559 Ry                                         
                                                                                
   TITEL  = PAW_PBE Fe_sv_h 08Apr2002                                           
   LULTRA =        F    use ultrasoft PP ?                                      
   IUNSCR =        1    unscreen: 0-lin 1-nonlin 2-no                           
   RPACOR =    1.400    partial core radius                                     
   POMASS =   55.847; ZVAL   =   16.000    mass and valenz                      
   RCORE  =    1.600    outmost cutoff radius                                   
   RWIGS  =    2.200; RWIGS  =    1.164    wigner-seitz radius (au A)           
   ENMAX  =  547.365; ENMIN  =  410.523 eV                                      
   RCLOC  =     .801    cutoff for local pot                                    
   LCOR   =        T    correct aug charges                                     
   LPAW   =        T    paw PP                                                  
   EAUG   =  946.219                                                            
   DEXC   =     .000                                                            
   RMAX   =    1.971    core radius for proj-oper                               
   RAUG   =    1.300    factor for augmentation sphere                          
   RDEP   =    1.688    radius for radial grids                                 
   QCUT   =   -6.343; QGAM   =   12.685    optimization parameters              
                                                                                
   Description                                                                  
     l     E      TYP  RCUT    TYP  RCUT                                        
     0   .000     23  1.600                                                     
     0   .000     23  1.600                                                     
     1   .000     23  1.600                                                     
     1  2.000     23  1.600                                                     
     2   .000     23  1.600                                                     
     2   .000     23  1.600                                                     
     3   .000      7   .000                                                     
  local pseudopotential read in
  partial core-charges read in
  atomic valenz-charges read in
  non local Contribution for L=           0  read in
    real space projection operators read in
  non local Contribution for L=           0  read in
    real space projection operators read in
  non local Contribution for L=           1  read in
    real space projection operators read in
  non local Contribution for L=           1  read in
    real space projection operators read in
  non local Contribution for L=           2  read in
    real space projection operators read in
  non local Contribution for L=           2  read in
    real space projection operators read in
    PAW grid and wavefunctions read in
 
   number of l-projection  operators is LMAX  =           6
   number of lm-projection operators is LMMAX =          18
 
 POTCAR:    PAW_PBE Cl 17Jan2003                  
   VRHFIN =Cl: s2p5                                                             
   LEXCH  = PE                                                                  
   EATOM  =   409.7259 eV,   30.1140 Ry                                         
                                                                                
   TITEL  = PAW_PBE Cl 17Jan2003                                                
   LULTRA =        F    use ultrasoft PP ?                                      
   IUNSCR =        1    unscreen: 0-lin 1-nonlin 2-no                           
   RPACOR =    1.500    partial core radius                                     
   POMASS =   35.453; ZVAL   =    7.000    mass and valenz                      
   RCORE  =    1.900    outmost cutoff radius                                   
   RWIGS  =    2.100; RWIGS  =    1.111    wigner-seitz radius (au A)           
   ENMAX  =  280.000; ENMIN  =  196.854 eV                                      
   ICORE  =        2    local potential                                         
   LCOR   =        T    correct aug charges                                     
   LPAW   =        T    paw PP                                                  
   EAUG   =  356.192                                                            
   DEXC   =     .000                                                            
   RMAX   =    2.846    core radius for proj-oper                               
   RAUG   =    1.300    factor for augmentation sphere                          
   RDEP   =    2.020    radius for radial grids                                 
   QCUT   =   -4.392; QGAM   =    8.784    optimization parameters              
                                                                                
   Description                                                                  
     l     E      TYP  RCUT    TYP  RCUT                                        
     0   .000     23  1.900                                                     
     0   .000     23  1.900                                                     
     1   .000     23  1.900                                                     
     1   .000     23  1.900                                                     
     2   .000     23  1.900                                                     
  local pseudopotential read in
  partial core-charges read in
  atomic valenz-charges read in
  non local Contribution for L=           0  read in
    real space projection operators read in
  non local Contribution for L=           0  read in
    real space projection operators read in
  non local Contribution for L=           1  read in
    real space projection operators read in
  non local Contribution for L=           1  read in
    real space projection operators read in
    PAW grid and wavefunctions read in
 
   number of l-projection  operators is LMAX  =           4
   number of lm-projection operators is LMMAX =           8
 

 ----------------------------------------------------------------------------- 
|                                                                             |
|  ADVICE TO THIS USER RUNNING 'VASP/VAMP'   (HEAR YOUR MASTER'S VOICE ...):  |
|                                                                             |
|      You have a (more or less) 'large supercell' and for larger cells       |
|      it might be more efficient to use real space projection operators      |
|      So try LREAL= Auto  in the INCAR   file.                               |
|      Mind: If you want to do a very accurate calculations keep the          |
|      reciprocal projection scheme          (i.e. LREAL=.FALSE.)             |
|                                                                             |
 ----------------------------------------------------------------------------- 

 PAW_PBE Cs_sv 08Apr2002                :
 energy of atom  1       EATOM= -555.6835
 kinetic energy error for atom=    0.0009 (will be added to EATOM!!)
 PAW_PBE Ag 06Sep2000                   :
 energy of atom  2       EATOM=-1037.4134
 kinetic energy error for atom=    0.0010 (will be added to EATOM!!)
 PAW_PBE Fe_sv_h 08Apr2002              :
 energy of atom  3       EATOM=-3377.7268
 kinetic energy error for atom=    0.0650 (will be added to EATOM!!)
  PAW_PBE Cl 17Jan2003                  :
 energy of atom  4       EATOM= -409.7259
 kinetic energy error for atom=    0.0010 (will be added to EATOM!!)
 
 
 POSCAR: cs2agfecl6                              
  positions in direct lattice
  velocities in cartesian coordinates
 exchange correlation table for  LEXCH =        8
   RHO(1)=    0.500       N(1)  =     2000
   RHO(2)=  100.500       N(2)  =     4000
 


--------------------------------------------------------------------------------------------------------


 ion  position               nearest neighbor table
   1  0.250  0.750  0.750-
   2  0.750  0.250  0.250-
   3  0.750  0.250  0.750-
   4  0.250  0.750  0.250-
   5  0.750  0.750  0.250-
   6  0.250  0.250  0.750-
   7  0.250  0.250  0.250-
   8  0.750  0.750  0.750-
   9  0.500  0.000  0.500-  25 2.78  39 2.78  17 2.78  26 2.78  18 2.78  40 2.78
  10  0.500  0.500  0.000-  23 2.78  33 2.78  19 2.78  24 2.78  20 2.78  34 2.78
  11  0.000  0.500  0.500-  31 2.78  35 2.78  21 2.78  32 2.78  22 2.78  36 2.78
  12  0.000  0.000  0.000-  27 2.78  28 2.78  29 2.78  30 2.78  37 2.78  38 2.78
  13  0.500  0.500  0.500-  17 2.43  18 2.43  19 2.43  20 2.43  21 2.43  22 2.43
  14  0.500  0.000  0.000-  24 2.43  26 2.43  27 2.43  28 2.43  25 2.43  23 2.43
  15  0.000  0.500  0.000-  29 2.43  30 2.43  32 2.43  34 2.43  33 2.43  31 2.43
  16  0.000  0.000  0.500-  36 2.43  37 2.43  38 2.43  40 2.43  39 2.43  35 2.43
  17  0.500  0.734  0.500-  13 2.43   9 2.78
  18  0.500  0.266  0.500-  13 2.43   9 2.78
  19  0.500  0.500  0.734-  13 2.43  10 2.78
  20  0.500  0.500  0.266-  13 2.43  10 2.78
  21  0.734  0.500  0.500-  13 2.43  11 2.78
  22  0.266  0.500  0.500-  13 2.43  11 2.78
  23  0.500  0.234  0.000-  14 2.43  10 2.78
  24  0.500  0.766  0.000-  14 2.43  10 2.78
  25  0.500  0.000  0.234-  14 2.43   9 2.78
  26  0.500  0.000  0.766-  14 2.43   9 2.78
  27  0.734  0.000  0.000-  14 2.43  12 2.78
  28  0.266  0.000  0.000-  14 2.43  12 2.78
  29  0.000  0.734  0.000-  15 2.43  12 2.78
  30  0.000  0.266  0.000-  15 2.43  12 2.78
  31  0.000  0.500  0.234-  15 2.43  11 2.78
  32  0.000  0.500  0.766-  15 2.43  11 2.78
  33  0.234  0.500  0.000-  15 2.43  10 2.78
  34  0.766  0.500  0.000-  15 2.43  10 2.78
  35  0.000  0.234  0.500-  16 2.43  11 2.78
  36  0.000  0.766  0.500-  16 2.43  11 2.78
  37  0.000  0.000  0.734-  16 2.43  12 2.78
  38  0.000  0.000  0.266-  16 2.43  12 2.78
  39  0.234  0.000  0.500-  16 2.43   9 2.78
  40  0.766  0.000  0.500-  16 2.43   9 2.78
 
  LATTYP: Found a simple cubic cell.
 ALAT       =    10.4190054737
  
  Lattice vectors:
  
 A1 = (  10.4190054737,   0.0000000000,   0.0000000000)
 A2 = (   0.0000000000,  10.4190054737,   0.0000000000)
 A3 = (   0.0000000000,   0.0000000000,  10.4190054737)


Analysis of symmetry for initial positions (statically):
=====================================================================
 Subroutine PRICEL returns following result:
 
  LATTYP: Found a face centered cubic cell.
 ALAT       =    10.4190054737
  
  Lattice vectors:
  
 A1 = (   5.2095027369,   5.2095027369,   0.0000000000)
 A2 = (   5.2095027369,   0.0000000000,  -5.2095027369)
 A3 = (   0.0000000000,   5.2095027369,  -5.2095027369)
 
   4 primitive cells build up your supercell.
 

 Routine SETGRP: Setting up the symmetry group for a 
 simple cubic supercell.


 Subroutine GETGRP returns: Found 48 space group operations
 (whereof 48 operations were pure point group operations)
 out of a pool of 48 trial point group operations.


The static configuration has the point symmetry O_h .


Analysis of symmetry for dynamics (positions and initial velocities):
=====================================================================
 Subroutine PRICEL returns following result:
 
  LATTYP: Found a face centered cubic cell.
 ALAT       =    10.4190054737
  
  Lattice vectors:
  
 A1 = (   5.2095027369,   5.2095027369,   0.0000000000)
 A2 = (   5.2095027369,   0.0000000000,  -5.2095027369)
 A3 = (   0.0000000000,   5.2095027369,  -5.2095027369)
 
   4 primitive cells build up your supercell.
 

 Routine SETGRP: Setting up the symmetry group for a 
 simple cubic supercell.


 Subroutine GETGRP returns: Found 48 space group operations
 (whereof 48 operations were pure point group operations)
 out of a pool of 48 trial point group operations.


The dynamic configuration has the point symmetry O_h .


Analysis of structural, dynamic, and magnetic symmetry:
=====================================================================
 Subroutine PRICEL returns following result:
 
  LATTYP: Found a face centered cubic cell.
 ALAT       =    10.4190054737
  
  Lattice vectors:
  
 A1 = (   5.2095027369,   5.2095027369,   0.0000000000)
 A2 = (   5.2095027369,   0.0000000000,  -5.2095027369)
 A3 = (   0.0000000000,   5.2095027369,  -5.2095027369)
 
   4 primitive cells build up your supercell.
 

 Routine SETGRP: Setting up the symmetry group for a 
 simple cubic supercell.


 Subroutine GETGRP returns: Found 48 space group operations
 (whereof 48 operations were pure point group operations)
 out of a pool of 48 trial point group operations.


The magnetic configuration has the point symmetry O_h .


 Subroutine INISYM returns: Found 48 space group operations
 (whereof 48 operations are pure point group operations),
 and found     4 'primitive' translations

 
 

Automatic generation of k-mesh.
 generate k-points for:    7    7    7
Space group operators:
 irot       det(A)        alpha          n_x          n_y          n_z        tau_x        tau_y        tau_z
    1     1.000000     0.000000     1.000000     0.000000     0.000000     0.000000     0.000000     0.000000
    2    -1.000000     0.000000     1.000000     0.000000     0.000000     0.000000     0.000000     0.000000
    3     1.000000   120.000000    -0.577350    -0.577350    -0.577350     0.000000     0.000000     0.000000
    4    -1.000000   120.000000    -0.577350    -0.577350    -0.577350     0.000000     0.000000     0.000000
    5     1.000000   120.000000     0.577350     0.577350     0.577350     0.000000     0.000000     0.000000
    6    -1.000000   120.000000     0.577350     0.577350     0.577350     0.000000     0.000000     0.000000
    7     1.000000    90.000000     0.000000     0.000000    -1.000000     0.000000     0.000000     0.000000
    8    -1.000000    90.000000     0.000000     0.000000    -1.000000     0.000000     0.000000     0.000000
    9     1.000000   180.000000     0.000000     0.707107     0.707107     0.000000     0.000000     0.000000
   10    -1.000000   180.000000     0.000000     0.707107     0.707107     0.000000     0.000000     0.000000
   11     1.000000    90.000000     0.000000     1.000000     0.000000     0.000000     0.000000     0.000000
   12    -1.000000    90.000000     0.000000     1.000000     0.000000     0.000000     0.000000     0.000000
   13     1.000000   180.000000     0.000000     0.000000     1.000000     0.000000     0.000000     0.000000
   14    -1.000000   180.000000     0.000000     0.000000     1.000000     0.000000     0.000000     0.000000
   15     1.000000   120.000000    -0.577350     0.577350     0.577350     0.000000     0.000000     0.000000
   16    -1.000000   120.000000    -0.577350     0.577350     0.577350     0.000000     0.000000     0.000000
   17     1.000000   120.000000    -0.577350     0.577350    -0.577350     0.000000     0.000000     0.000000
   18    -1.000000   120.000000    -0.577350     0.577350    -0.577350     0.000000     0.000000     0.000000
   19     1.000000    90.000000     0.000000     0.000000     1.000000     0.000000     0.000000     0.000000
   20    -1.000000    90.000000     0.000000     0.000000     1.000000     0.000000     0.000000     0.000000
   21     1.000000    90.000000    -1.000000     0.000000     0.000000     0.000000     0.000000     0.000000
   22    -1.000000    90.000000    -1.000000     0.000000     0.000000     0.000000     0.000000     0.000000
   23     1.000000   180.000000     0.707107     0.000000     0.707107     0.000000     0.000000     0.000000
   24    -1.000000   180.000000     0.707107     0.000000     0.707107     0.000000     0.000000     0.000000
   25     1.000000   120.000000     0.577350    -0.577350     0.577350     0.000000     0.000000     0.000000
   26    -1.000000   120.000000     0.577350    -0.577350     0.577350     0.000000     0.000000     0.000000
   27     1.000000   120.000000    -0.577350    -0.577350     0.577350     0.000000     0.000000     0.000000
   28    -1.000000   120.000000    -0.577350    -0.577350     0.577350     0.000000     0.000000     0.000000
   29     1.000000   180.000000     1.000000     0.000000     0.000000     0.000000     0.000000     0.000000
   30    -1.000000   180.000000     1.000000     0.000000     0.000000     0.000000     0.000000     0.000000
   31     1.000000    90.000000     0.000000    -1.000000     0.000000     0.000000     0.000000     0.000000
   32    -1.000000    90.000000     0.000000    -1.000000     0.000000     0.000000     0.000000     0.000000
   33     1.000000   180.000000     0.707107     0.707107     0.000000     0.000000     0.000000     0.000000
   34    -1.000000   180.000000     0.707107     0.707107     0.000000     0.000000     0.000000     0.000000
   35     1.000000    90.000000     1.000000     0.000000     0.000000     0.000000     0.000000     0.000000
   36    -1.000000    90.000000     1.000000     0.000000     0.000000     0.000000     0.000000     0.000000
   37     1.000000   120.000000     0.577350    -0.577350    -0.577350     0.000000     0.000000     0.000000
   38    -1.000000   120.000000     0.577350    -0.577350    -0.577350     0.000000     0.000000     0.000000
   39     1.000000   180.000000     0.000000     1.000000     0.000000     0.000000     0.000000     0.000000
   40    -1.000000   180.000000     0.000000     1.000000     0.000000     0.000000     0.000000     0.000000
   41     1.000000   120.000000     0.577350     0.577350    -0.577350     0.000000     0.000000     0.000000
   42    -1.000000   120.000000     0.577350     0.577350    -0.577350     0.000000     0.000000     0.000000
   43     1.000000   180.000000     0.000000    -0.707107     0.707107     0.000000     0.000000     0.000000
   44    -1.000000   180.000000     0.000000    -0.707107     0.707107     0.000000     0.000000     0.000000
   45     1.000000   180.000000     0.707107    -0.707107     0.000000     0.000000     0.000000     0.000000
   46    -1.000000   180.000000     0.707107    -0.707107     0.000000     0.000000     0.000000     0.000000
   47     1.000000   180.000000     0.707107     0.000000    -0.707107     0.000000     0.000000     0.000000
   48    -1.000000   180.000000     0.707107     0.000000    -0.707107     0.000000     0.000000     0.000000
 
 Subroutine IBZKPT returns following result:
 ===========================================
 
 Found     20 irreducible k-points:
 
 Following reciprocal coordinates:
            Coordinates               Weight
  0.000000  0.000000  0.000000      1.000000
  0.142857  0.000000  0.000000      6.000000
  0.285714  0.000000  0.000000      6.000000
  0.428571  0.000000  0.000000      6.000000
  0.142857  0.142857  0.000000     12.000000
  0.285714  0.142857  0.000000     24.000000
  0.428571  0.142857  0.000000     24.000000
  0.285714  0.285714  0.000000     12.000000
  0.428571  0.285714  0.000000     24.000000
  0.428571  0.428571  0.000000     12.000000
  0.142857  0.142857  0.142857      8.000000
  0.285714  0.142857  0.142857     24.000000
  0.428571  0.142857  0.142857     24.000000
  0.285714  0.285714  0.142857     24.000000
  0.428571  0.285714  0.142857     48.000000
  0.428571  0.428571  0.142857     24.000000
  0.285714  0.285714  0.285714      8.000000
  0.428571  0.285714  0.285714     24.000000
  0.428571  0.428571  0.285714     24.000000
  0.428571  0.428571  0.428571      8.000000
 
 Following cartesian coordinates:
            Coordinates               Weight
  0.000000  0.000000  0.000000      1.000000
  0.013711  0.000000  0.000000      6.000000
  0.027422  0.000000  0.000000      6.000000
  0.041134  0.000000  0.000000      6.000000
  0.013711  0.013711  0.000000     12.000000
  0.027422  0.013711  0.000000     24.000000
  0.041134  0.013711  0.000000     24.000000
  0.027422  0.027422  0.000000     12.000000
  0.041134  0.027422  0.000000     24.000000
  0.041134  0.041134  0.000000     12.000000
  0.013711  0.013711  0.013711      8.000000
  0.027422  0.013711  0.013711     24.000000
  0.041134  0.013711  0.013711     24.000000
  0.027422  0.027422  0.013711     24.000000
  0.041134  0.027422  0.013711     48.000000
  0.041134  0.041134  0.013711     24.000000
  0.027422  0.027422  0.027422      8.000000
  0.041134  0.027422  0.027422     24.000000
  0.041134  0.041134  0.027422     24.000000
  0.041134  0.041134  0.041134      8.000000
 
 TETIRR: Found    163 inequivalent tetrahedra from     2058


--------------------------------------------------------------------------------------------------------




 Dimension of arrays:
   k-points           NKPTS =     20   k-points in BZ     NKDIM =     20   number of bands    NBANDS=    224
   number of dos      NEDOS =   5000   number of ions     NIONS =     40
   non local maximal  LDIM  =      6   non local SUM 2l+1 LMDIM =     18
   total plane-waves  NPLWV = 884736
   max r-space proj   IRMAX =      1   max aug-charges    IRDMAX=  39303
   dimension x,y,z NGX =    96 NGY =   96 NGZ =   96
   dimension x,y,z NGXF=   192 NGYF=  192 NGZF=  192
   support grid    NGXF=   192 NGYF=  192 NGZF=  192
   ions per type =               8   4   4  24
   NGX,Y,Z   is equivalent  to a cutoff of  15.32, 15.32, 15.32 a.u.
   NGXF,Y,Z  is equivalent  to a cutoff of  30.64, 30.64, 30.64 a.u.

 SYSTEM =  DOS                                     
 POSCAR =  cs2agfecl6                              

 Startparameter for this run:
   NWRITE =      2    write-flag & timer
   PREC   = accura    normal or accurate (medium, high low for compatibility)
   ISTART =      1    job   : 0-new  1-cont  2-samecut
   ICHARG =     11    charge: 1-file 2-atom 10-const
   ISPIN  =      2    spin polarized calculation?
   LNONCOLLINEAR =      F non collinear calculations
   LSORBIT =      F    spin-orbit coupling
   INIWAV =      1    electr: 0-lowe 1-rand  2-diag
   LASPH  =      F    aspherical Exc in radial PAW
   METAGGA=      F    non-selfconsistent MetaGGA calc.

 Electronic Relaxation 1
   ENCUT  =  720.0 eV  52.92 Ry    7.27 a.u.  22.80 22.80 22.80*2*pi/ulx,y,z
   ENINI  =  720.0     initial cutoff
   ENAUG  =  946.2 eV  augmentation charge cutoff
   NELM   =    100;   NELMIN=  2; NELMDL=  0     # of ELM steps 
   EDIFF  = 0.1E-04   stopping-criterion for ELM
   LREAL  =      F    real-space projection
   NLSPLINE    = F    spline interpolate recip. space projectors
   LCOMPAT=      F    compatible to vasp.4.4
   GGA_COMPAT  = T    GGA compatible to vasp.4.4-vasp.4.6
   LMAXPAW     = -100 max onsite density
   LMAXMIX     =    4 max onsite mixed and CHGCAR
   VOSKOWN=      0    Vosko Wilk Nusair interpolation
   ROPT   =    0.00000   0.00000   0.00000   0.00000
 Ionic relaxation
   EDIFFG = 0.1E-03   stopping-criterion for IOM
   NSW    =      0    number of steps for IOM
   NBLOCK =      1;   KBLOCK =      1    inner block; outer block 
   IBRION =     -1    ionic relax: 0-MD 1-quasi-New 2-CG
   NFREE  =      0    steps in history (QN), initial steepest desc. (CG)
   ISIF   =      3    stress and relaxation
   IWAVPR =     10    prediction:  0-non 1-charg 2-wave 3-comb
   ISYM   =      2    0-nonsym 1-usesym 2-fastsym
   LCORR  =      T    Harris-Foulkes like correction to forces

   POTIM  = 0.5000    time-step for ionic-motion
   TEIN   =    0.0    initial temperature
   TEBEG  =    0.0;   TEEND  =   0.0 temperature during run
   SMASS  =  -3.00    Nose mass-parameter (am)
   estimated Nose-frequenzy (Omega)   =  0.10E-29 period in steps =****** mass=  -0.248E-26a.u.
   SCALEE = 1.0000    scale energy and forces
   NPACO  =    256;   APACO  = 16.0  distance and # of slots for P.C.
   PSTRESS=    0.0 pullay stress

  Mass of Ions in am
   POMASS = 132.90107.87 55.85 35.45
  Ionic Valenz
   ZVAL   =   9.00 11.00 16.00  7.00
  Atomic Wigner-Seitz radii
   RWIGS  =  -1.00 -1.00 -1.00 -1.00
  virtual crystal weights 
   VCA    =   1.00  1.00  1.00  1.00
   NELECT =     348.0000    total number of electrons
   NUPDOWN=      -1.0000    fix difference up-down

 DOS related values:
   EMIN   =  10.00;   EMAX   =-10.00  energy-range for DOS
   EFERMI =   0.00
   ISMEAR =    -5;   SIGMA  =   0.20  broadening in eV -4-tet -1-fermi 0-gaus

 Electronic relaxation 2 (details)
   IALGO  =     38    algorithm
   LDIAG  =      T    sub-space diagonalisation (order eigenvalues)
   LSUBROT=      F    optimize rotation matrix (better conditioning)
   TURBO    =      0    0=normal 1=particle mesh
   IRESTART =      0    0=no restart 2=restart with 2 vectors
   NREBOOT  =      0    no. of reboots
   NMIN     =      0    reboot dimension
   EREF     =   0.00    reference energy to select bands
   IMIX   =      4    mixing-type and parameters
     AMIX     =   0.40;   BMIX     =  1.00
     AMIX_MAG =   1.60;   BMIX_MAG =  1.00
     AMIN     =   0.10
     WC   =   100.;   INIMIX=   1;  MIXPRE=   1;  MAXMIX= -45

 Intra band minimization:
   WEIMIN = 0.0000     energy-eigenvalue tresh-hold
   EBREAK =  0.11E-07  absolut break condition
   DEPER  =   0.30     relativ break condition  

   TIME   =   0.40     timestep for ELM

  volume/ion in A,a.u.               =      28.28       190.82
  Fermi-wavevector in a.u.,A,eV,Ry     =   1.105202  2.088529 16.619127  1.221471
  Thomas-Fermi vector in A             =   2.241686
 
 Write flags
   LWAVE        =      T    write WAVECAR
   LDOWNSAMPLE  =      F    k-point downsampling of WAVECAR
   LCHARG       =      T    write CHGCAR
   LVTOT        =      F    write LOCPOT, total local potential
   LVHAR        =      F    write LOCPOT, Hartree potential only
   LELF         =      F    write electronic localiz. function (ELF)
   LORBIT       =     11    0 simple, 1 ext, 2 COOP (PROOUT), +10 PAW based schemes


 Dipole corrections
   LMONO  =      F    monopole corrections only (constant potential shift)
   LDIPOL =      F    correct potential (dipole corrections)
   IDIPOL =      0    1-x, 2-y, 3-z, 4-all directions 
   EPSILON=  1.0000000 bulk dielectric constant

 LDA+U is selected, type is set to LDAUTYPE =  2
   angular momentum for each species LDAUL =    -1   -1    2   -1
   U (eV)           for each species LDAUU =   0.0  0.0  5.0  0.0
   J (eV)           for each species LDAUJ =   0.0  0.0  0.0  0.0
 Exchange correlation treatment:
   GGA     =    PE    GGA type
   LEXCH   =     8    internal setting for exchange type
   VOSKOWN=      0    Vosko Wilk Nusair interpolation
   LHFCALC =     F    Hartree Fock is set to
   LHFONE  =     F    Hartree Fock one center treatment
   AEXX    =    0.0000 exact exchange contribution

 Linear response parameters
   LEPSILON=     F    determine dielectric tensor
   LRPA    =     F    only Hartree local field effects (RPA)
   LNABLA  =     F    use nabla operator in PAW spheres
   LVEL    =     F    velocity operator in full k-point grid
   LINTERFAST=   F  fast interpolation
   KINTER  =     0    interpolate to denser k-point grid
   CSHIFT  =0.1000    complex shift for real part using Kramers Kronig
   OMEGAMAX=  -1.0    maximum frequency
   DEG_THRESHOLD= 0.2000000E-02 threshold for treating states as degnerate
   RTIME   =   -0.100 relaxation time in fs
  (WPLASMAI=    0.000 imaginary part of plasma frequency in eV, 0.658/RTIME)
   DFIELD  = 0.0000000 0.0000000 0.0000000 field for delta impulse in time
 
 Orbital magnetization related:
   ORBITALMAG=     F  switch on orbital magnetization
   LCHIMAG   =     F  perturbation theory with respect to B field
   DQ        =  0.001000  dq finite difference perturbation B field
   LLRAUG    =     F  two centre corrections for induced B field



--------------------------------------------------------------------------------------------------------


 Static calculation
 charge density and potential remain constant during run
 spin polarized calculation
 Variant of blocked Davidson
 Davidson routine will perform the subspace rotation
 perform sub-space diagonalisation
    after iterative eigenvector-optimisation
 no mixing
 using additional bands           50
 reciprocal scheme for non local part
 use partial core corrections
 calculate Harris-corrections to forces 
   (improved forces if not selfconsistent)
 use gradient corrections 
 WARNING: stress and forces are not correct
  (second derivative of E(xc) not defined)
 use of overlap-Matrix (Vanderbilt PP)
 Fermi weights with tetrahedron method with Bloechl corrections


--------------------------------------------------------------------------------------------------------


  energy-cutoff  :      720.00
  volume of cell :     1131.04
      direct lattice vectors                 reciprocal lattice vectors
    10.419005474  0.000000000  0.000000000     0.095978450  0.000000000  0.000000000
     0.000000000 10.419005474  0.000000000     0.000000000  0.095978450  0.000000000
     0.000000000  0.000000000 10.419005474     0.000000000  0.000000000  0.095978450

  length of vectors
    10.419005474 10.419005474 10.419005474     0.095978450  0.095978450  0.095978450


 
 old parameters found on file WAVECAR:
  energy-cutoff  :      720.00
  volume of cell :     1131.04
      direct lattice vectors                 reciprocal lattice vectors
    10.419005474  0.000000000  0.000000000     0.095978450  0.000000000  0.000000000
     0.000000000 10.419005474  0.000000000     0.000000000  0.095978450  0.000000000
     0.000000000  0.000000000 10.419005474     0.000000000  0.000000000  0.095978450

  length of vectors

 
 k-points in units of 2pi/SCALE and weight: read from INCAR                         
   0.00000000  0.00000000  0.00000000       0.003
   0.01371121  0.00000000  0.00000000       0.017
   0.02742241  0.00000000  0.00000000       0.017
   0.04113362  0.00000000  0.00000000       0.017
   0.01371121  0.01371121  0.00000000       0.035
   0.02742241  0.01371121  0.00000000       0.070
   0.04113362  0.01371121  0.00000000       0.070
   0.02742241  0.02742241  0.00000000       0.035
   0.04113362  0.02742241  0.00000000       0.070
   0.04113362  0.04113362  0.00000000       0.035
   0.01371121  0.01371121  0.01371121       0.023
   0.02742241  0.01371121  0.01371121       0.070
   0.04113362  0.01371121  0.01371121       0.070
   0.02742241  0.02742241  0.01371121       0.070
   0.04113362  0.02742241  0.01371121       0.140
   0.04113362  0.04113362  0.01371121       0.070
   0.02742241  0.02742241  0.02742241       0.023
   0.04113362  0.02742241  0.02742241       0.070
   0.04113362  0.04113362  0.02742241       0.070
   0.04113362  0.04113362  0.04113362       0.023
 
 k-points in reciprocal lattice and weights: read from INCAR                         
   0.00000000  0.00000000  0.00000000       0.003
   0.14285714  0.00000000  0.00000000       0.017
   0.28571429  0.00000000  0.00000000       0.017
   0.42857143  0.00000000  0.00000000       0.017
   0.14285714  0.14285714  0.00000000       0.035
   0.28571429  0.14285714  0.00000000       0.070
   0.42857143  0.14285714  0.00000000       0.070
   0.28571429  0.28571429  0.00000000       0.035
   0.42857143  0.28571429  0.00000000       0.070
   0.42857143  0.42857143  0.00000000       0.035
   0.14285714  0.14285714  0.14285714       0.023
   0.28571429  0.14285714  0.14285714       0.070
   0.42857143  0.14285714  0.14285714       0.070
   0.28571429  0.28571429  0.14285714       0.070
   0.42857143  0.28571429  0.14285714       0.140
   0.42857143  0.42857143  0.14285714       0.070
   0.28571429  0.28571429  0.28571429       0.023
   0.42857143  0.28571429  0.28571429       0.070
   0.42857143  0.42857143  0.28571429       0.070
   0.42857143  0.42857143  0.42857143       0.023
 
 position of ions in fractional coordinates (direct lattice) 
   0.25000000  0.75000002  0.75000002
   0.75000002  0.25000000  0.25000000
   0.75000002  0.25000000  0.75000002
   0.25000000  0.75000002  0.25000000
   0.75000002  0.75000002  0.25000000
   0.25000000  0.25000000  0.75000002
   0.25000000  0.25000000  0.25000000
   0.75000002  0.75000002  0.75000002
   0.50000000  0.00000000  0.50000000
   0.50000000  0.50000000  0.00000000
   0.00000000  0.50000000  0.50000000
   0.00000000  0.00000000  0.00000000
   0.50000000  0.50000000  0.50000000
   0.50000000  0.00000000  0.00000000
   0.00000000  0.50000000  0.00000000
   0.00000000  0.00000000  0.50000000
   0.50000000  0.73350920  0.50000000
   0.50000000  0.26649080  0.50000000
   0.50000000  0.50000000  0.73350920
   0.50000000  0.50000000  0.26649080
   0.73350920  0.50000000  0.50000000
   0.26649080  0.50000000  0.50000000
   0.50000000  0.23350924  0.00000000
   0.50000000  0.76649080  0.00000000
   0.50000000  0.00000000  0.23350924
   0.50000000  0.00000000  0.76649080
   0.73350920  0.00000000  0.00000000
   0.26649080  0.00000000  0.00000000
   0.00000000  0.73350920  0.00000000
   0.00000000  0.26649080  0.00000000
   0.00000000  0.50000000  0.23350924
   0.00000000  0.50000000  0.76649080
   0.23350924  0.50000000  0.00000000
   0.76649080  0.50000000  0.00000000
   0.00000000  0.23350924  0.50000000
   0.00000000  0.76649080  0.50000000
   0.00000000  0.00000000  0.73350920
   0.00000000  0.00000000  0.26649080
   0.23350924  0.00000000  0.50000000
   0.76649080  0.00000000  0.50000000
 
 position of ions in cartesian coordinates  (Angst):
   2.60475137  7.81425434  7.81425434
   7.81425434  2.60475137  2.60475137
   7.81425434  2.60475137  7.81425434
   2.60475137  7.81425434  2.60475137
   7.81425434  7.81425434  2.60475137
   2.60475137  2.60475137  7.81425434
   2.60475137  2.60475137  2.60475137
   7.81425434  7.81425434  7.81425434
   5.20950274  0.00000000  5.20950274
   5.20950274  5.20950274  0.00000000
   0.00000000  5.20950274  5.20950274
   0.00000000  0.00000000  0.00000000
   5.20950274  5.20950274  5.20950274
   5.20950274  0.00000000  0.00000000
   0.00000000  5.20950274  0.00000000
   0.00000000  0.00000000  5.20950274
   5.20950274  7.64243632  5.20950274
   5.20950274  2.77656915  5.20950274
   5.20950274  5.20950274  7.64243632
   5.20950274  5.20950274  2.77656915
   7.64243632  5.20950274  5.20950274
   2.77656915  5.20950274  5.20950274
   5.20950274  2.43293406  0.00000000
   5.20950274  7.98607189  0.00000000
   5.20950274  0.00000000  2.43293406
   5.20950274  0.00000000  7.98607189
   7.64243632  0.00000000  0.00000000
   2.77656915  0.00000000  0.00000000
   0.00000000  7.64243632  0.00000000
   0.00000000  2.77656915  0.00000000
   0.00000000  5.20950274  2.43293406
   0.00000000  5.20950274  7.98607189
   2.43293406  5.20950274  0.00000000
   7.98607189  5.20950274  0.00000000
   0.00000000  2.43293406  5.20950274
   0.00000000  7.98607189  5.20950274
   0.00000000  0.00000000  7.64243632
   0.00000000  0.00000000  2.77656915
   2.43293406  0.00000000  5.20950274
   7.98607189  0.00000000  5.20950274
 


--------------------------------------------------------------------------------------------------------


 k-point  1 :   0.0000 0.0000 0.0000  plane waves:   49509
 k-point  2 :   0.1429 0.0000 0.0000  plane waves:   49633
 k-point  3 :   0.2857 0.0000 0.0000  plane waves:   49582
 k-point  4 :   0.4286 0.0000 0.0000  plane waves:   49590
 k-point  5 :   0.1429 0.1429 0.0000  plane waves:   49620
 k-point  6 :   0.2857 0.1429 0.0000  plane waves:   49619
 k-point  7 :   0.4286 0.1429 0.0000  plane waves:   49627
 k-point  8 :   0.2857 0.2857 0.0000  plane waves:   49614
 k-point  9 :   0.4286 0.2857 0.0000  plane waves:   49663
 k-point 10 :   0.4286 0.4286 0.0000  plane waves:   49656
 k-point 11 :   0.1429 0.1429 0.1429  plane waves:   49623
 k-point 12 :   0.2857 0.1429 0.1429  plane waves:   49639
 k-point 13 :   0.4286 0.1429 0.1429  plane waves:   49592
 k-point 14 :   0.2857 0.2857 0.1429  plane waves:   49636
 k-point 15 :   0.4286 0.2857 0.1429  plane waves:   49591
 k-point 16 :   0.4286 0.4286 0.1429  plane waves:   49627
 k-point 17 :   0.2857 0.2857 0.2857  plane waves:   49625
 k-point 18 :   0.4286 0.2857 0.2857  plane waves:   49628
 k-point 19 :   0.4286 0.4286 0.2857  plane waves:   49629
 k-point 20 :   0.4286 0.4286 0.4286  plane waves:   49640

 maximum and minimum number of plane-waves per node :     49663    49509

 maximum number of plane-waves:     49663
 maximum index in each direction: 
   IXMAX=   22   IYMAX=   22   IZMAX=   22
   IXMIN=  -23   IYMIN=  -23   IZMIN=  -23


 serial   3D FFT for wavefunctions
 parallel 3D FFT for charge:
    minimum data exchange during FFTs selected (reduces bandwidth)


 total amount of memory used by VASP MPI-rank0  1000278. kBytes
=======================================================================

   base      :      30000. kBytes
   nonl-proj :     604011. kBytes
   fftplans  :      12348. kBytes
   grid      :      96061. kBytes
   one-center:       1244. kBytes
   wavefun   :     256614. kBytes
 
     INWAV:  cpu time   15.9358: real time   23.0180
 initial charge density was supplied:
 number of electron     347.9999888 magnetization      20.0004863
 keeping initial charge density in first step


--------------------------------------------------------------------------------------------------------


 Maximum index for augmentation-charges         1438 (set IRDMAX)


--------------------------------------------------------------------------------------------------------


 First call to EWALD:  gamma=   0.170
 Maximum number of real-space cells 3x 3x 3
 Maximum number of reciprocal cells 3x 3x 3

    FEWALD:  cpu time    0.0036: real time    0.0047


--------------------------------------- Iteration      1(   1)  ---------------------------------------


    POTLOK:  cpu time    0.5108: real time    0.5169
    SETDIJ:  cpu time    0.0222: real time    0.0225
     EDDAV:  cpu time  360.5169: real time  377.2383
 BZINTS: Fermi energy:  1.102507;348.000000 electrons
         Band energy:***********;  BLOECHL correction:  0.000000
       DOS:  cpu time    0.0364: real time    0.0364
    --------------------------------------------
      LOOP:  cpu time  361.0863: real time  377.8142

 eigenvalue-minimisations  : 25536
 total energy-change (2. order) :-0.1299129E+03  (-0.5423129E+02)
 number of electron     347.9999888 magnetization      20.0004863
 augmentation part      347.9999888 magnetization      20.0004863

 Free energy of the ion-electron system (eV)
  ---------------------------------------------------
  alpha Z        PSCENC =       967.75677095
  Ewald energy   TEWEN  =    -19639.66209906
  -Hartree energ DENC   =    -11249.20035375
  -exchange      EXHF   =         0.00000000
  -V(xc)+E(xc)   XCENC  =       970.96803713
  PAW double counting   =     20243.48264200   -19873.42590133
  entropy T*S    EENTRO =         0.00000000
  eigenvalues    EBANDS =     -3488.98631841
  atomic energy  EATOM  =     31939.15428920
  Solvation  Ediel_sol  =         0.00000000
  ---------------------------------------------------
  free energy    TOTEN  =      -129.91293327 eV

  energy without entropy =     -129.91293327  energy(sigma->0) =     -129.91293327


--------------------------------------------------------------------------------------------------------




--------------------------------------- Iteration      1(   2)  ---------------------------------------


     EDDAV:  cpu time  319.7557: real time  332.4763
 BZINTS: Fermi energy:  1.101463;348.000000 electrons
         Band energy:***********;  BLOECHL correction:  0.000000
       DOS:  cpu time    0.0392: real time    0.0427
    --------------------------------------------
      LOOP:  cpu time  319.7949: real time  332.5190

 eigenvalue-minimisations  : 21728
 total energy-change (2. order) :-0.3840126E+01  (-0.3837572E+01)
 number of electron     347.9999888 magnetization      20.0004863
 augmentation part      347.9999888 magnetization      20.0004863

 Free energy of the ion-electron system (eV)
  ---------------------------------------------------
  alpha Z        PSCENC =       967.75677095
  Ewald energy   TEWEN  =    -19639.66209906
  -Hartree energ DENC   =    -11249.20035375
  -exchange      EXHF   =         0.00000000
  -V(xc)+E(xc)   XCENC  =       970.96803713
  PAW double counting   =     20243.48264200   -19873.42590133
  entropy T*S    EENTRO =         0.00000000
  eigenvalues    EBANDS =     -3492.82644477
  atomic energy  EATOM  =     31939.15428920
  Solvation  Ediel_sol  =         0.00000000
  ---------------------------------------------------
  free energy    TOTEN  =      -133.75305963 eV

  energy without entropy =     -133.75305963  energy(sigma->0) =     -133.75305963


--------------------------------------------------------------------------------------------------------




--------------------------------------- Iteration      1(   3)  ---------------------------------------


     EDDAV:  cpu time  421.9022: real time  425.1458
 BZINTS: Fermi energy:  1.095989;348.000000 electrons
         Band energy:***********;  BLOECHL correction:  0.000000
       DOS:  cpu time    0.0338: real time    0.0338
    --------------------------------------------
      LOOP:  cpu time  421.9360: real time  425.1796

 eigenvalue-minimisations  : 29400
 total energy-change (2. order) :-0.1270808E+00  (-0.1270619E+00)
 number of electron     347.9999888 magnetization      20.0004863
 augmentation part      347.9999888 magnetization      20.0004863

 Free energy of the ion-electron system (eV)
  ---------------------------------------------------
  alpha Z        PSCENC =       967.75677095
  Ewald energy   TEWEN  =    -19639.66209906
  -Hartree energ DENC   =    -11249.20035375
  -exchange      EXHF   =         0.00000000
  -V(xc)+E(xc)   XCENC  =       970.96803713
  PAW double counting   =     20243.48264200   -19873.42590133
  entropy T*S    EENTRO =         0.00000000
  eigenvalues    EBANDS =     -3492.95352555
  atomic energy  EATOM  =     31939.15428920
  Solvation  Ediel_sol  =         0.00000000
  ---------------------------------------------------
  free energy    TOTEN  =      -133.88014041 eV

  energy without entropy =     -133.88014041  energy(sigma->0) =     -133.88014041


--------------------------------------------------------------------------------------------------------




--------------------------------------- Iteration      1(   4)  ---------------------------------------


     EDDAV:  cpu time  379.7840: real time  382.9635
 BZINTS: Fermi energy:  1.087894;348.000000 electrons
         Band energy:***********;  BLOECHL correction:  0.000000
       DOS:  cpu time    0.0328: real time    0.0328
    --------------------------------------------
      LOOP:  cpu time  379.8168: real time  382.9963

 eigenvalue-minimisations  : 25956
 total energy-change (2. order) :-0.1310865E-02  (-0.1310709E-02)
 number of electron     347.9999888 magnetization      20.0004863
 augmentation part      347.9999888 magnetization      20.0004863

 Free energy of the ion-electron system (eV)
  ---------------------------------------------------
  alpha Z        PSCENC =       967.75677095
  Ewald energy   TEWEN  =    -19639.66209906
  -Hartree energ DENC   =    -11249.20035375
  -exchange      EXHF   =         0.00000000
  -V(xc)+E(xc)   XCENC  =       970.96803713
  PAW double counting   =     20243.48264200   -19873.42590133
  entropy T*S    EENTRO =         0.00000000
  eigenvalues    EBANDS =     -3492.95483641
  atomic energy  EATOM  =     31939.15428920
  Solvation  Ediel_sol  =         0.00000000
  ---------------------------------------------------
  free energy    TOTEN  =      -133.88145127 eV

  energy without entropy =     -133.88145127  energy(sigma->0) =     -133.88145127


--------------------------------------------------------------------------------------------------------




--------------------------------------- Iteration      1(   5)  ---------------------------------------


     EDDAV:  cpu time  415.9629: real time  419.9851
 BZINTS: Fermi energy:  1.097868;348.000000 electrons
         Band energy:***********;  BLOECHL correction:  0.000000
       DOS:  cpu time    0.0340: real time    0.0340
    --------------------------------------------
      LOOP:  cpu time  415.9969: real time  420.0191

 eigenvalue-minimisations  : 28924
 total energy-change (2. order) :-0.6772912E-04  (-0.6772505E-04)
 number of electron     347.9999888 magnetization      20.0004863
 augmentation part      347.9999888 magnetization      20.0004863

 Free energy of the ion-electron system (eV)
  ---------------------------------------------------
  alpha Z        PSCENC =       967.75677095
  Ewald energy   TEWEN  =    -19639.66209906
  -Hartree energ DENC   =    -11249.20035375
  -exchange      EXHF   =         0.00000000
  -V(xc)+E(xc)   XCENC  =       970.96803713
  PAW double counting   =     20243.48264200   -19873.42590133
  entropy T*S    EENTRO =         0.00000000
  eigenvalues    EBANDS =     -3492.95490414
  atomic energy  EATOM  =     31939.15428920
  Solvation  Ediel_sol  =         0.00000000
  ---------------------------------------------------
  free energy    TOTEN  =      -133.88151900 eV

  energy without entropy =     -133.88151900  energy(sigma->0) =     -133.88151900


--------------------------------------------------------------------------------------------------------




--------------------------------------- Iteration      1(   6)  ---------------------------------------


     EDDAV:  cpu time  298.2356: real time  300.9922
 BZINTS: Fermi energy:  1.097046;348.000000 electrons
         Band energy:***********;  BLOECHL correction:  0.000000
       DOS:  cpu time    0.0359: real time    0.0359
    --------------------------------------------
      LOOP:  cpu time  298.2715: real time  301.0281

 eigenvalue-minimisations  : 19152
 total energy-change (2. order) :-0.1598724E-05  (-0.1597446E-05)
 number of electron     347.9999888 magnetization      20.0004863
 augmentation part      347.9999888 magnetization      20.0004863

 Free energy of the ion-electron system (eV)
  ---------------------------------------------------
  alpha Z        PSCENC =       967.75677095
  Ewald energy   TEWEN  =    -19639.66209906
  -Hartree energ DENC   =    -11249.20035375
  -exchange      EXHF   =         0.00000000
  -V(xc)+E(xc)   XCENC  =       970.96803713
  PAW double counting   =     20243.48264200   -19873.42590133
  entropy T*S    EENTRO =         0.00000000
  eigenvalues    EBANDS =     -3492.95490574
  atomic energy  EATOM  =     31939.15428920
  Solvation  Ediel_sol  =         0.00000000
  ---------------------------------------------------
  free energy    TOTEN  =      -133.88152060 eV

  energy without entropy =     -133.88152060  energy(sigma->0) =     -133.88152060


--------------------------------------------------------------------------------------------------------




 average (electrostatic) potential at core
  the test charge radii are     1.1312  1.1249  0.7427  0.9406
  (the norm of the test charge is              1.0000)
       1 -48.2941       2 -48.2941       3 -48.2941       4 -48.2941       5 -48.2941
       6 -48.2941       7 -48.2941       8 -48.2941       9 -41.3427      10 -41.3427
      11 -41.3427      12 -41.3427      13-227.5649      14-227.5649      15-227.5649
      16-227.5649      17 -93.2145      18 -93.2145      19 -93.2145      20 -93.2145
      21 -93.2145      22 -93.2145      23 -93.2145      24 -93.2145      25 -93.2145
      26 -93.2145      27 -93.2145      28 -93.2145      29 -93.2145      30 -93.2145
      31 -93.2145      32 -93.2145      33 -93.2145      34 -93.2145      35 -93.2145
      36 -93.2145      37 -93.2145      38 -93.2145      39 -93.2145      40 -93.2145
 
 
 
 E-fermi :   1.0970     XC(G=0):  -8.5225     alpha+bet : -8.3161


 spin component 1

 k-point     1 :       0.0000    0.0000    0.0000
  band No.  band energies     occupation 
      1     -90.8709      1.00000
      2     -90.8709      1.00000
      3     -90.8709      1.00000
      4     -90.8709      1.00000
      5     -56.8272      1.00000
      6     -56.8272      1.00000
      7     -56.8272      1.00000
      8     -56.8272      1.00000
      9     -56.8272      1.00000
     10     -56.8272      1.00000
     11     -56.8272      1.00000
     12     -56.8272      1.00000
     13     -56.8272      1.00000
     14     -56.8272      1.00000
     15     -56.8272      1.00000
     16     -56.8272      1.00000
     17     -18.5785      1.00000
     18     -18.5696      1.00000
     19     -18.5696      1.00000
     20     -18.5696      1.00000
     21     -18.5628      1.00000
     22     -18.5628      1.00000
     23     -18.5628      1.00000
     24     -18.5577      1.00000
     25     -13.3041      1.00000
     26     -13.2244      1.00000
     27     -13.2244      1.00000
     28     -13.2244      1.00000
     29     -12.7876      1.00000
     30     -12.7876      1.00000
     31     -12.7876      1.00000
     32     -12.7876      1.00000
     33     -12.7876      1.00000
     34     -12.7876      1.00000
     35     -12.7857      1.00000
     36     -12.7857      1.00000
     37     -12.7857      1.00000
     38     -12.7763      1.00000
     39     -12.7763      1.00000
     40     -12.7763      1.00000
     41     -12.7736      1.00000
     42     -12.7736      1.00000
     43     -12.7736      1.00000
     44     -12.6528      1.00000
     45     -12.6528      1.00000
     46     -12.6475      1.00000
     47     -12.6475      1.00000
     48     -12.6475      1.00000
     49      -5.9221      1.00000
     50      -5.9221      1.00000
     51      -5.9221      1.00000
     52      -5.8722      1.00000
     53      -5.8722      1.00000
     54      -5.8722      1.00000
     55      -5.8273      1.00000
     56      -5.8273      1.00000
     57      -5.8273      1.00000
     58      -5.8271      1.00000
     59      -5.8271      1.00000
     60      -5.7854      1.00000
     61      -5.7854      1.00000
     62      -5.7854      1.00000
     63      -5.7854      1.00000
     64      -5.7854      1.00000
     65      -5.7854      1.00000
     66      -5.7685      1.00000
     67      -5.7685      1.00000
     68      -5.7685      1.00000
     69      -5.4964      1.00000
     70      -5.4964      1.00000
     71      -5.4964      1.00000
     72      -5.4854      1.00000
     73      -5.4854      1.00000
     74      -5.4854      1.00000
     75      -5.4854      1.00000
     76      -5.4854      1.00000
     77      -5.4854      1.00000
     78      -5.4694      1.00000
     79      -5.4694      1.00000
     80      -5.4694      1.00000
     81      -5.3795      1.00000
     82      -5.3795      1.00000
     83      -5.3795      1.00000
     84      -5.3795      1.00000
     85      -5.3795      1.00000
     86      -5.3795      1.00000
     87      -5.3646      1.00000
     88      -5.3646      1.00000
     89      -5.3646      1.00000
     90      -5.3551      1.00000
     91      -5.3551      1.00000
     92      -5.3551      1.00000
     93      -4.2077      1.00000
     94      -3.8277      1.00000
     95      -3.8277      1.00000
     96      -3.8277      1.00000
     97      -2.3208      1.00000
     98      -2.3208      1.00000
     99      -2.3208      1.00000
    100      -2.2889      1.00000
    101      -2.2889      1.00000
    102      -2.2889      1.00000
    103      -2.2889      1.00000
    104      -2.2889      1.00000
    105      -2.2889      1.00000
    106      -2.0702      1.00000
    107      -2.0702      1.00000
    108      -2.0702      1.00000
    109      -1.8866      1.00000
    110      -1.8866      1.00000
    111      -1.8866      1.00000
    112      -1.7701      1.00000
    113      -1.7701      1.00000
    114      -1.7701      1.00000
    115      -1.7667      1.00000
    116      -1.7667      1.00000
    117      -1.5806      1.00000
    118      -1.5806      1.00000
    119      -1.5806      1.00000
    120      -1.5475      1.00000
    121      -1.5475      1.00000
    122      -1.5475      1.00000
    123      -1.3772      1.00000
    124      -1.3772      1.00000
    125      -1.3772      1.00000
    126      -1.3772      1.00000
    127      -1.3772      1.00000
    128      -1.3772      1.00000
    129      -1.0176      1.00000
    130      -1.0176      1.00000
    131      -1.0176      1.00000
    132      -0.9148      1.00000
    133      -0.9148      1.00000
    134      -0.9148      1.00000
    135      -0.9148      1.00000
    136      -0.9148      1.00000
    137      -0.9148      1.00000
    138      -0.6959      1.00000
    139      -0.6959      1.00000
    140      -0.6959      1.00000
    141      -0.6398      1.00000
    142      -0.6398      1.00000
    143      -0.6398      1.00000
    144      -0.6166      1.00000
    145      -0.6166      1.00000
    146      -0.6166      1.00000
    147      -0.6166      1.00000
    148      -0.6166      1.00000
    149      -0.6166      1.00000
    150      -0.5087      1.00000
    151      -0.5087      1.00000
    152      -0.5087      1.00000
    153      -0.5028      1.00000
    154      -0.5028      1.00000
    155      -0.5028      1.00000
    156      -0.4034      1.00000
    157      -0.4034      1.00000
    158      -0.4034      1.00000
    159      -0.4034      1.00000
    160      -0.4034      1.00000
    161      -0.4034      1.00000
    162      -0.3337      1.00000
    163      -0.3337      1.00000
    164      -0.3337      1.00000
    165      -0.1653      1.00000
    166      -0.1653      1.00000
    167      -0.1653      1.00000
    168       0.0532      1.00000
    169       0.0532      1.00000
    170       0.0532      1.00000
    171       0.0532      1.00000
    172       0.0532      1.00000
    173       0.0532      1.00000
    174       0.1284      1.00000
    175       0.1284      1.00000
    176       0.1284      1.00000
    177       0.1472      1.00000
    178       0.1472      1.00000
    179       0.1472      1.00000
    180       1.0801      1.00000
    181       1.0801      1.00000
    182       1.0801      1.00000
    183       1.0838      1.00000
    184       1.0838      1.00000
    185       3.4799      0.00000
    186       5.5886      0.00000
    187       5.5886      0.00000
    188       5.5886      0.00000
    189       6.4908      0.00000
    190       6.6754      0.00000
    191       6.6754      0.00000
    192       6.7306      0.00000
    193       6.7306      0.00000
    194       6.7306      0.00000
    195       7.6394      0.00000
    196       7.6394      0.00000
    197       7.6394      0.00000
    198       7.9009      0.00000
    199       7.9009      0.00000
    200       7.9009      0.00000
    201       7.9028      0.00000
    202       7.9028      0.00000
    203       7.9028      0.00000
    204       7.9426      0.00000
    205       7.9426      0.00000
    206       7.9426      0.00000
    207       8.0969      0.00000
    208       8.1139      0.00000
    209       8.1139      0.00000
    210       8.1139      0.00000
    211       8.1139      0.00000
    212       8.1139      0.00000
    213       8.1139      0.00000
    214       8.3696      0.00000
    215       8.3696      0.00000
    216       8.3696      0.00000
    217       8.3952      0.00000
    218       8.3952      0.00000
    219       8.3952      0.00000
    220       8.5471      0.00000
    221       8.5471      0.00000
    222       8.5471      0.00000
    223       8.9045      0.00000
    224       8.9045      0.00000

 k-point     2 :       0.1429    0.0000    0.0000
  band No.  band energies     occupation 
      1     -90.8709      1.00000
      2     -90.8709      1.00000
      3     -90.8709      1.00000
      4     -90.8709      1.00000
      5     -56.8273      1.00000
      6     -56.8273      1.00000
      7     -56.8273      1.00000
      8     -56.8273      1.00000
      9     -56.8273      1.00000
     10     -56.8273      1.00000
     11     -56.8273      1.00000
     12     -56.8272      1.00000
     13     -56.8272      1.00000
     14     -56.8272      1.00000
     15     -56.8272      1.00000
     16     -56.8272      1.00000
     17     -18.5781      1.00000
     18     -18.5700      1.00000
     19     -18.5692      1.00000
     20     -18.5692      1.00000
     21     -18.5631      1.00000
     22     -18.5631      1.00000
     23     -18.5625      1.00000
     24     -18.5579      1.00000
     25     -13.3001      1.00000
     26     -13.2282      1.00000
     27     -13.2225      1.00000
     28     -13.2225      1.00000
     29     -12.8195      1.00000
     30     -12.8195      1.00000
     31     -12.7980      1.00000
     32     -12.7870      1.00000
     33     -12.7870      1.00000
     34     -12.7869      1.00000
     35     -12.7869      1.00000
     36     -12.7769      1.00000
     37     -12.7768      1.00000
     38     -12.7768      1.00000
     39     -12.7743      1.00000
     40     -12.7743      1.00000
     41     -12.7575      1.00000
     42     -12.7533      1.00000
     43     -12.7533      1.00000
     44     -12.6564      1.00000
     45     -12.6526      1.00000
     46     -12.6500      1.00000
     47     -12.6500      1.00000
     48     -12.6477      1.00000
     49      -5.9183      1.00000
     50      -5.9183      1.00000
     51      -5.9156      1.00000
     52      -5.8675      1.00000
     53      -5.8675      1.00000
     54      -5.8658      1.00000
     55      -5.8296      1.00000
     56      -5.8290      1.00000
     57      -5.8290      1.00000
     58      -5.8273      1.00000
     59      -5.8271      1.00000
     60      -5.7893      1.00000
     61      -5.7893      1.00000
     62      -5.7853      1.00000
     63      -5.7853      1.00000
     64      -5.7850      1.00000
     65      -5.7850      1.00000
     66      -5.7723      1.00000
     67      -5.7699      1.00000
     68      -5.7699      1.00000
     69      -5.4993      1.00000
     70      -5.4993      1.00000
     71      -5.4917      1.00000
     72      -5.4876      1.00000
     73      -5.4876      1.00000
     74      -5.4799      1.00000
     75      -5.4799      1.00000
     76      -5.4791      1.00000
     77      -5.4791      1.00000
     78      -5.4631      1.00000
     79      -5.4622      1.00000
     80      -5.4622      1.00000
     81      -5.3847      1.00000
     82      -5.3847      1.00000
     83      -5.3833      1.00000
     84      -5.3833      1.00000
     85      -5.3792      1.00000
     86      -5.3792      1.00000
     87      -5.3704      1.00000
     88      -5.3704      1.00000
     89      -5.3685      1.00000
     90      -5.3646      1.00000
     91      -5.3558      1.00000
     92      -5.3558      1.00000
     93      -4.1820      1.00000
     94      -3.8314      1.00000
     95      -3.8128      1.00000
     96      -3.8128      1.00000
     97      -2.4172      1.00000
     98      -2.4103      1.00000
     99      -2.4103      1.00000
    100      -2.3196      1.00000
    101      -2.3196      1.00000
    102      -2.2908      1.00000
    103      -2.2908      1.00000
    104      -2.2821      1.00000
    105      -2.2821      1.00000
    106      -2.2812      1.00000
    107      -2.0871      1.00000
    108      -2.0871      1.00000
    109      -1.8675      1.00000
    110      -1.8647      1.00000
    111      -1.8647      1.00000
    112      -1.7699      1.00000
    113      -1.7669      1.00000
    114      -1.7025      1.00000
    115      -1.7025      1.00000
    116      -1.6631      1.00000
    117      -1.5619      1.00000
    118      -1.5400      1.00000
    119      -1.5400      1.00000
    120      -1.5353      1.00000
    121      -1.5353      1.00000
    122      -1.3888      1.00000
    123      -1.3888      1.00000
    124      -1.3861      1.00000
    125      -1.3861      1.00000
    126      -1.3757      1.00000
    127      -1.3757      1.00000
    128      -1.3341      1.00000
    129      -1.0867      1.00000
    130      -1.0867      1.00000
    131      -1.0267      1.00000
    132      -0.9167      1.00000
    133      -0.9167      1.00000
    134      -0.9156      1.00000
    135      -0.9156      1.00000
    136      -0.8429      1.00000
    137      -0.8429      1.00000
    138      -0.7099      1.00000
    139      -0.7099      1.00000
    140      -0.6869      1.00000
    141      -0.6471      1.00000
    142      -0.6471      1.00000
    143      -0.6350      1.00000
    144      -0.6230      1.00000
    145      -0.6230      1.00000
    146      -0.5952      1.00000
    147      -0.5952      1.00000
    148      -0.5948      1.00000
    149      -0.5948      1.00000
    150      -0.5761      1.00000
    151      -0.5761      1.00000
    152      -0.5171      1.00000
    153      -0.5129      1.00000
    154      -0.5125      1.00000
    155      -0.5125      1.00000
    156      -0.4379      1.00000
    157      -0.4379      1.00000
    158      -0.3953      1.00000
    159      -0.3953      1.00000
    160      -0.3811      1.00000
    161      -0.3811      1.00000
    162      -0.2953      1.00000
    163      -0.2031      1.00000
    164      -0.1739      1.00000
    165      -0.1739      1.00000
    166      -0.1623      1.00000
    167      -0.1623      1.00000
    168       0.0452      1.00000
    169       0.0452      1.00000
    170       0.0483      1.00000
    171       0.0483      1.00000
    172       0.0521      1.00000
    173       0.0521      1.00000
    174       0.1096      1.00000
    175       0.1096      1.00000
    176       0.1234      1.00000
    177       0.1234      1.00000
    178       0.1293      1.00000
    179       0.1463      1.00000
    180       1.0032      1.00000
    181       1.0281      1.00000
    182       1.0281      1.00000
    183       1.0803      1.00000
    184       1.0836      1.00000
    185       3.5629      0.00000
    186       5.4409      0.00000
    187       5.6044      0.00000
    188       5.6044      0.00000
    189       6.5402      0.00000
    190       6.7231      0.00000
    191       6.7251      0.00000
    192       6.7833      0.00000
    193       6.7833      0.00000
    194       6.7972      0.00000
    195       7.5334      0.00000
    196       7.5334      0.00000
    197       7.5572      0.00000
    198       7.6850      0.00000
    199       7.6850      0.00000
    200       7.8245      0.00000
    201       7.8479      0.00000
    202       7.9321      0.00000
    203       7.9321      0.00000
    204       7.9377      0.00000
    205       7.9937      0.00000
    206       7.9937      0.00000
    207       8.0129      0.00000
    208       8.0129      0.00000
    209       8.1285      0.00000
    210       8.1285      0.00000
    211       8.1654      0.00000
    212       8.2799      0.00000
    213       8.3222      0.00000
    214       8.3657      0.00000
    215       8.3658      0.00000
    216       8.4309      0.00000
    217       8.4309      0.00000
    218       8.5296      0.00000
    219       8.5296      0.00000
    220       8.5380      0.00000
    221       8.5526      0.00000
    222       8.6297      0.00000
    223       8.6786      0.00000
    224       8.8947      0.00000

 k-point     3 :       0.2857    0.0000    0.0000
  band No.  band energies     occupation 
      1     -90.8709      1.00000
      2     -90.8709      1.00000
      3     -90.8709      1.00000
      4     -90.8709      1.00000
      5     -56.8273      1.00000
      6     -56.8273      1.00000
      7     -56.8273      1.00000
      8     -56.8272      1.00000
      9     -56.8272      1.00000
     10     -56.8272      1.00000
     11     -56.8272      1.00000
     12     -56.8272      1.00000
     13     -56.8272      1.00000
     14     -56.8272      1.00000
     15     -56.8272      1.00000
     16     -56.8272      1.00000
     17     -18.5768      1.00000
     18     -18.5713      1.00000
     19     -18.5683      1.00000
     20     -18.5683      1.00000
     21     -18.5641      1.00000
     22     -18.5641      1.00000
     23     -18.5618      1.00000
     24     -18.5586      1.00000
     25     -13.2889      1.00000
     26     -13.2390      1.00000
     27     -13.2181      1.00000
     28     -13.2181      1.00000
     29     -12.8467      1.00000
     30     -12.8467      1.00000
     31     -12.8055      1.00000
     32     -12.7855      1.00000
     33     -12.7854      1.00000
     34     -12.7854      1.00000
     35     -12.7850      1.00000
     36     -12.7850      1.00000
     37     -12.7784      1.00000
     38     -12.7784      1.00000
     39     -12.7763      1.00000
     40     -12.7763      1.00000
     41     -12.7319      1.00000
     42     -12.7233      1.00000
     43     -12.7233      1.00000
     44     -12.6671      1.00000
     45     -12.6575      1.00000
     46     -12.6575      1.00000
     47     -12.6518      1.00000
     48     -12.6485      1.00000
     49      -5.9092      1.00000
     50      -5.9092      1.00000
     51      -5.8983      1.00000
     52      -5.8543      1.00000
     53      -5.8543      1.00000
     54      -5.8483      1.00000
     55      -5.8383      1.00000
     56      -5.8329      1.00000
     57      -5.8329      1.00000
     58      -5.8273      1.00000
     59      -5.8272      1.00000
     60      -5.8001      1.00000
     61      -5.8001      1.00000
     62      -5.7849      1.00000
     63      -5.7849      1.00000
     64      -5.7836      1.00000
     65      -5.7834      1.00000
     66      -5.7834      1.00000
     67      -5.7730      1.00000
     68      -5.7730      1.00000
     69      -5.5026      1.00000
     70      -5.5026      1.00000
     71      -5.4929      1.00000
     72      -5.4929      1.00000
     73      -5.4774      1.00000
     74      -5.4647      1.00000
     75      -5.4647      1.00000
     76      -5.4617      1.00000
     77      -5.4617      1.00000
     78      -5.4466      1.00000
     79      -5.4466      1.00000
     80      -5.4460      1.00000
     81      -5.3990      1.00000
     82      -5.3990      1.00000
     83      -5.3938      1.00000
     84      -5.3938      1.00000
     85      -5.3899      1.00000
     86      -5.3868      1.00000
     87      -5.3868      1.00000
     88      -5.3802      1.00000
     89      -5.3783      1.00000
     90      -5.3783      1.00000
     91      -5.3573      1.00000
     92      -5.3573      1.00000
     93      -4.1094      1.00000
     94      -3.8520      1.00000
     95      -3.7752      1.00000
     96      -3.7752      1.00000
     97      -2.6104      1.00000
     98      -2.6104      1.00000
     99      -2.5819      1.00000
    100      -2.5487      1.00000
    101      -2.3160      1.00000
    102      -2.3160      1.00000
    103      -2.2960      1.00000
    104      -2.2960      1.00000
    105      -2.2614      1.00000
    106      -2.2614      1.00000
    107      -2.1291      1.00000
    108      -2.1291      1.00000
    109      -1.8151      1.00000
    110      -1.8017      1.00000
    111      -1.8017      1.00000
    112      -1.7695      1.00000
    113      -1.7673      1.00000
    114      -1.6621      1.00000
    115      -1.6621      1.00000
    116      -1.6035      1.00000
    117      -1.5184      1.00000
    118      -1.5184      1.00000
    119      -1.4710      1.00000
    120      -1.4613      1.00000
    121      -1.4613      1.00000
    122      -1.4115      1.00000
    123      -1.4115      1.00000
    124      -1.3959      1.00000
    125      -1.3959      1.00000
    126      -1.3722      1.00000
    127      -1.3722      1.00000
    128      -1.1000      1.00000
    129      -1.1000      1.00000
    130      -1.0683      1.00000
    131      -0.9659      1.00000
    132      -0.9174      1.00000
    133      -0.9174      1.00000
    134      -0.9035      1.00000
    135      -0.9035      1.00000
    136      -0.8142      1.00000
    137      -0.8142      1.00000
    138      -0.7732      1.00000
    139      -0.7732      1.00000
    140      -0.6923      1.00000
    141      -0.6923      1.00000
    142      -0.6612      1.00000
    143      -0.6569      1.00000
    144      -0.6569      1.00000
    145      -0.6206      1.00000
    146      -0.6117      1.00000
    147      -0.6117      1.00000
    148      -0.5901      1.00000
    149      -0.5901      1.00000
    150      -0.5409      1.00000
    151      -0.5395      1.00000
    152      -0.5259      1.00000
    153      -0.5259      1.00000
    154      -0.4885      1.00000
    155      -0.4885      1.00000
    156      -0.4027      1.00000
    157      -0.4027      1.00000
    158      -0.3645      1.00000
    159      -0.3645      1.00000
    160      -0.3406      1.00000
    161      -0.3406      1.00000
    162      -0.3081      1.00000
    163      -0.1603      1.00000
    164      -0.1603      1.00000
    165      -0.1575      1.00000
    166       0.0249      1.00000
    167       0.0249      1.00000
    168       0.0347      1.00000
    169       0.0347      1.00000
    170       0.0495      1.00000
    171       0.0495      1.00000
    172       0.0618      1.00000
    173       0.0618      1.00000
    174       0.0647      1.00000
    175       0.0647      1.00000
    176       0.0649      1.00000
    177       0.0649      1.00000
    178       0.1319      1.00000
    179       0.1437      1.00000
    180       0.7782      1.00000
    181       0.8798      1.00000
    182       0.8798      1.00000
    183       1.0808      1.00000
    184       1.0831      1.00000
    185       3.8009      0.00000
    186       5.0700      0.00000
    187       5.6444      0.00000
    188       5.6444      0.00000
    189       6.6755      0.00000
    190       6.8685      0.00000
    191       6.8863      0.00000
    192       6.9356      0.00000
    193       6.9356      0.00000
    194       6.9708      0.00000
    195       7.1714      0.00000
    196       7.1714      0.00000
    197       7.3543      0.00000
    198       7.6198      0.00000
    199       7.6951      0.00000
    200       7.7638      0.00000
    201       7.7638      0.00000
    202       7.8097      0.00000
    203       7.8097      0.00000
    204       7.9552      0.00000
    205       8.0195      0.00000
    206       8.0248      0.00000
    207       8.0248      0.00000
    208       8.1417      0.00000
    209       8.1417      0.00000
    210       8.1430      0.00000
    211       8.1430      0.00000
    212       8.2077      0.00000
    213       8.3339      0.00000
    214       8.4126      0.00000
    215       8.4301      0.00000
    216       8.4307      0.00000
    217       8.5017      0.00000
    218       8.5018      0.00000
    219       8.5287      0.00000
    220       8.5287      0.00000
    221       8.8391      0.00000
    222       8.8611      0.00000
[...]
   26        1.597   3.531   0.000   5.128
   27        1.596   3.533   0.000   5.129
   28        1.596   3.533   0.000   5.129
   29        1.597   3.533   0.000   5.130
   30        1.597   3.533   0.000   5.130
   31        1.597   3.531   0.000   5.128
   32        1.597   3.531   0.000   5.128
   33        1.596   3.533   0.000   5.129
   34        1.596   3.533   0.000   5.129
   35        1.597   3.533   0.000   5.130
   36        1.597   3.533   0.000   5.130
   37        1.597   3.531   0.000   5.128
   38        1.597   3.531   0.000   5.128
   39        1.596   3.533   0.000   5.129
   40        1.596   3.533   0.000   5.129
--------------------------------------------------
tot         61.808 146.489  56.549 264.846
 


 magnetization (x)
 
# of ion       s       p       d       tot
------------------------------------------
    1        0.000   0.001   0.000   0.002
    2        0.000   0.001   0.000   0.002
    3        0.000   0.001   0.000   0.002
    4        0.000   0.001   0.000   0.002
    5        0.000   0.001   0.000   0.002
    6        0.000   0.001   0.000   0.002
    7        0.000   0.001   0.000   0.002
    8        0.000   0.001   0.000   0.002
    9        0.011   0.007   0.048   0.066
   10        0.011   0.007   0.048   0.066
   11        0.011   0.007   0.048   0.066
   12        0.011   0.007   0.048   0.066
   13        0.012   0.011   3.866   3.889
   14        0.012   0.011   3.866   3.889
   15        0.012   0.011   3.866   3.889
   16        0.012   0.011   3.866   3.889
   17        0.005   0.085   0.000   0.089
   18        0.005   0.085   0.000   0.089
   19        0.004   0.085   0.000   0.089
   20        0.004   0.085   0.000   0.089
   21        0.005   0.085   0.000   0.091
   22        0.005   0.085   0.000   0.091
   23        0.005   0.085   0.000   0.089
   24        0.005   0.085   0.000   0.089
   25        0.004   0.085   0.000   0.089
   26        0.004   0.085   0.000   0.089
   27        0.005   0.085   0.000   0.091
   28        0.005   0.085   0.000   0.091
   29        0.005   0.085   0.000   0.089
   30        0.005   0.085   0.000   0.089
   31        0.004   0.085   0.000   0.089
   32        0.004   0.085   0.000   0.089
   33        0.005   0.085   0.000   0.091
   34        0.005   0.085   0.000   0.091
   35        0.005   0.085   0.000   0.089
   36        0.005   0.085   0.000   0.089
   37        0.004   0.085   0.000   0.089
   38        0.004   0.085   0.000   0.089
   39        0.005   0.085   0.000   0.091
   40        0.005   0.085   0.000   0.091
--------------------------------------------------
tot          0.206   2.119  15.658  17.983
 
    CHARGE:  cpu time    9.2297: real time    9.3208
    FORLOC:  cpu time    0.0674: real time    0.0674
    FORNL :  cpu time   64.9223: real time   65.1642
    STRESS:  cpu time  343.6719: real time  350.5327
    FORCOR:  cpu time    0.5268: real time    0.5273
    FORHAR:  cpu time    0.1150: real time    0.1176
    OFIELD:  cpu time    0.0021: real time    0.0021

  FORCE on cell =-STRESS in cart. coord.  units (eV):
  Direction    XX          YY          ZZ          XY          YZ          ZX
  --------------------------------------------------------------------------------------
  Alpha Z   967.75677   967.75677   967.75677
  Ewald   -6546.58431 -6546.58431 -6546.58431     0.00000     0.00000     0.00000
  Hartree  3749.74224  3749.74224  3749.74224    -0.00000    -0.00000    -0.00000
  E(xc)   -1593.02171 -1593.02171 -1593.02171    -0.00000    -0.00000    -0.00000
  Local   -6137.42841 -6137.42841 -6137.42841    -0.00000    -0.00000    -0.00000
  n-local  2315.69833  2314.61854  2312.78258    -0.09869    -0.07279    -0.05794
  augment  1215.26507  1215.26507  1215.26507     0.00000    -0.00000     0.00000
  Kinetic  6026.63796  6030.53838  6032.91543    -0.61642    -0.47729    -0.37446
  Fock        0.00000     0.00000     0.00000     0.00000     0.00000     0.00000
  -------------------------------------------------------------------------------------
  Total       0.12673     0.12673     0.12673     0.00000     0.00000     0.00000
  in kB       0.17951     0.17951     0.17951     0.00000     0.00000     0.00000
  external pressure =        0.18 kB  Pullay stress =        0.00 kB


 VOLUME and BASIS-vectors are now :
 -----------------------------------------------------------------------------
  energy-cutoff  :      720.00
  volume of cell :     1131.04
      direct lattice vectors                 reciprocal lattice vectors
    10.419005474  0.000000000  0.000000000     0.095978450  0.000000000  0.000000000
     0.000000000 10.419005474  0.000000000     0.000000000  0.095978450  0.000000000
     0.000000000  0.000000000 10.419005474     0.000000000  0.000000000  0.095978450

  length of vectors
    10.419005474 10.419005474 10.419005474     0.095978450  0.095978450  0.095978450


 FORCES acting on ions
    electron-ion (+dipol)            ewald-force                    non-local-force                 convergence-correction
 -----------------------------------------------------------------------------------------------
   0.957E-06 -.122E-03 -.122E-03   -.184E-05 -.366E-04 -.366E-04   0.669E-19 -.847E-19 0.678E-19   0.952E-06 0.535E-04 0.535E-04
   -.122E-03 0.957E-06 0.957E-06   -.366E-04 -.184E-05 -.184E-05   -.491E-19 -.109E-18 0.712E-19   0.535E-04 0.952E-06 0.952E-06
   -.122E-03 0.957E-06 -.122E-03   -.366E-04 -.184E-05 -.366E-04   0.162E-18 -.542E-19 0.745E-19   0.535E-04 0.952E-06 0.535E-04
   0.957E-06 -.122E-03 0.957E-06   -.184E-05 -.366E-04 -.184E-05   -.271E-19 0.296E-19 0.525E-19   0.952E-06 0.535E-04 0.952E-06
   -.122E-03 -.122E-03 0.957E-06   -.366E-04 -.366E-04 -.184E-05   0.898E-19 -.136E-19 0.108E-18   0.535E-04 0.535E-04 0.952E-06
   0.957E-06 0.957E-06 -.122E-03   -.184E-05 -.184E-05 -.366E-04   -.194E-18 -.381E-19 0.872E-19   0.952E-06 0.952E-06 0.535E-04
   0.957E-06 0.957E-06 0.957E-06   -.184E-05 -.184E-05 -.184E-05   0.136E-19 -.136E-19 0.712E-19   0.952E-06 0.952E-06 0.952E-06
   -.122E-03 -.122E-03 -.122E-03   -.366E-04 -.366E-04 -.366E-04   -.839E-19 -.144E-19 0.114E-18   0.535E-04 0.535E-04 0.535E-04
   0.836E-05 0.115E-05 0.836E-05   0.583E-04 0.521E-05 0.583E-04   -.331E-23 0.331E-23 0.165E-23   -.527E-04 -.466E-05 -.527E-04
   0.836E-05 0.836E-05 0.115E-05   0.583E-04 0.583E-04 0.521E-05   0.132E-22 0.182E-22 0.662E-23   -.527E-04 -.527E-04 -.466E-05
   0.115E-05 0.836E-05 0.836E-05   0.521E-05 0.583E-04 0.583E-04   -.993E-23 0.199E-22 0.869E-23   -.466E-05 -.527E-04 -.527E-04
   0.115E-05 0.115E-05 0.115E-05   0.521E-05 0.521E-05 0.521E-05   -.414E-23 -.331E-23 0.662E-23   -.466E-05 -.466E-05 -.466E-05
   0.203E-05 0.203E-05 0.203E-05   0.102E-04 0.102E-04 0.102E-04   0.331E-23 0.132E-22 -.607E-23   -.105E-04 -.105E-04 -.105E-04
   0.203E-05 0.167E-04 0.167E-04   0.102E-04 0.119E-03 0.119E-03   0.000E+00 0.000E+00 0.248E-23   -.105E-04 -.103E-03 -.103E-03
   0.167E-04 0.203E-05 0.167E-04   0.119E-03 0.102E-04 0.119E-03   0.000E+00 -.827E-24 0.331E-22   -.103E-03 -.105E-04 -.103E-03
   0.167E-04 0.167E-04 0.203E-05   0.119E-03 0.119E-03 0.102E-04   0.298E-22 0.993E-23 0.331E-23   -.103E-03 -.103E-03 -.105E-04
   0.210E-05 -.154E+03 0.170E-05   0.113E-04 0.154E+03 0.113E-04   -.678E-19 -.478E+00 -.661E-19   -.108E-04 0.282E-02 -.108E-04
   0.210E-05 0.154E+03 0.250E-05   0.113E-04 -.154E+03 0.113E-04   0.195E-18 0.478E+00 0.322E-19   -.108E-04 -.281E-02 -.108E-04
   0.210E-05 0.210E-05 -.154E+03   0.113E-04 0.113E-04 0.154E+03   -.136E-19 -.107E-18 -.478E+00   -.108E-04 -.108E-04 0.282E-02
   0.210E-05 0.210E-05 0.154E+03   0.113E-04 0.113E-04 -.154E+03   0.102E-19 -.610E-19 0.478E+00   -.108E-04 -.108E-04 -.281E-02
   -.154E+03 0.210E-05 0.170E-05   0.154E+03 0.113E-04 0.113E-04   -.478E+00 -.220E-19 0.407E-19   0.282E-02 -.108E-04 -.108E-04
   0.154E+03 0.210E-05 0.250E-05   -.154E+03 0.113E-04 0.113E-04   0.478E+00 -.508E-19 0.932E-19   -.281E-02 -.108E-04 -.108E-04
   0.210E-05 -.154E+03 0.182E-05   0.113E-04 0.154E+03 0.121E-04   -.136E-18 -.478E+00 -.169E-20   -.108E-04 0.294E-02 -.110E-04
   0.210E-05 0.154E+03 0.262E-05   0.113E-04 -.154E+03 0.121E-04   0.151E-18 0.478E+00 0.122E-18   -.108E-04 -.281E-02 -.110E-04
   0.210E-05 0.222E-05 -.154E+03   0.113E-04 0.121E-04 0.154E+03   -.237E-19 0.169E-19 -.478E+00   -.108E-04 -.110E-04 0.294E-02
   0.210E-05 0.222E-05 0.154E+03   0.113E-04 0.121E-04 -.154E+03   -.202E-18 0.508E-20 0.478E+00   -.108E-04 -.110E-04 -.281E-02
   -.154E+03 0.222E-05 0.182E-05   0.154E+03 0.121E-04 0.121E-04   -.478E+00 -.102E-18 -.230E-18   0.283E-02 -.110E-04 -.110E-04
   0.154E+03 0.222E-05 0.262E-05   -.154E+03 0.121E-04 0.121E-04   0.478E+00 0.237E-19 0.407E-19   -.282E-02 -.110E-04 -.110E-04
   0.222E-05 -.154E+03 0.182E-05   0.121E-04 0.154E+03 0.121E-04   -.610E-19 -.478E+00 -.152E-19   -.110E-04 0.283E-02 -.110E-04
   0.222E-05 0.154E+03 0.262E-05   0.121E-04 -.154E+03 0.121E-04   0.796E-19 0.478E+00 0.440E-19   -.110E-04 -.282E-02 -.110E-04
   0.222E-05 0.210E-05 -.154E+03   0.121E-04 0.113E-04 0.154E+03   0.125E-18 0.779E-19 -.478E+00   -.110E-04 -.108E-04 0.294E-02
   0.222E-05 0.210E-05 0.154E+03   0.121E-04 0.113E-04 -.154E+03   -.201E-18 -.695E-19 0.478E+00   -.110E-04 -.108E-04 -.281E-02
   -.154E+03 0.210E-05 0.182E-05   0.154E+03 0.113E-04 0.121E-04   -.478E+00 -.125E-18 -.407E-19   0.294E-02 -.108E-04 -.110E-04
   0.154E+03 0.210E-05 0.262E-05   -.154E+03 0.113E-04 0.121E-04   0.478E+00 -.644E-19 0.678E-19   -.281E-02 -.108E-04 -.110E-04
   0.222E-05 -.154E+03 0.170E-05   0.121E-04 0.154E+03 0.113E-04   -.542E-19 -.478E+00 -.185E-18   -.110E-04 0.294E-02 -.108E-04
   0.222E-05 0.154E+03 0.250E-05   0.121E-04 -.154E+03 0.113E-04   0.151E-18 0.478E+00 -.424E-19   -.110E-04 -.281E-02 -.108E-04
   0.222E-05 0.222E-05 -.154E+03   0.121E-04 0.121E-04 0.154E+03   -.237E-19 -.127E-18 -.478E+00   -.110E-04 -.110E-04 0.283E-02
   0.222E-05 0.222E-05 0.154E+03   0.121E-04 0.121E-04 -.154E+03   -.254E-19 -.508E-19 0.478E+00   -.110E-04 -.110E-04 -.282E-02
   -.154E+03 0.222E-05 0.170E-05   0.154E+03 0.121E-04 0.113E-04   -.478E+00 0.424E-19 -.339E-19   0.294E-02 -.110E-04 -.108E-04
   0.154E+03 0.222E-05 0.250E-05   -.154E+03 0.121E-04 0.113E-04   0.478E+00 0.779E-19 0.127E-18   -.281E-02 -.110E-04 -.108E-04
 -----------------------------------------------------------------------------------------------
   -.106E-02 -.106E-02 -.106E-02   0.568E-13 -.286E-13 -.854E-13   -.167E-15 -.222E-15 0.333E-15   -.234E-04 -.234E-04 -.234E-04
 
 
 POSITION                                       TOTAL-FORCE (eV/Angst)
 -----------------------------------------------------------------------------------
      2.60475      7.81425      7.81425         0.000000     -0.000000     -0.000000
      7.81425      2.60475      2.60475         0.000000      0.000000      0.000000
      7.81425      2.60475      7.81425         0.000000     -0.000000     -0.000000
      2.60475      7.81425      2.60475         0.000000     -0.000000      0.000000
      7.81425      7.81425      2.60475         0.000000     -0.000000      0.000000
      2.60475      2.60475      7.81425         0.000000     -0.000000      0.000000
      2.60475      2.60475      2.60475         0.000000      0.000000      0.000000
      7.81425      7.81425      7.81425         0.000000      0.000000      0.000000
      5.20950      0.00000      5.20950         0.000000     -0.000000      0.000000
      5.20950      5.20950      0.00000         0.000000      0.000000     -0.000000
      0.00000      5.20950      5.20950         0.000000      0.000000      0.000000
      0.00000      0.00000      0.00000         0.000000      0.000000     -0.000000
      5.20950      5.20950      5.20950         0.000000     -0.000000      0.000000
      5.20950      0.00000      0.00000         0.000000     -0.000000     -0.000000
      0.00000      5.20950      0.00000         0.000000     -0.000000     -0.000000
      0.00000      0.00000      5.20950         0.000000     -0.000000      0.000000
      5.20950      7.64244      5.20950         0.000000     -0.015551     -0.000000
      5.20950      2.77657      5.20950         0.000000      0.015551      0.000000
      5.20950      5.20950      7.64244         0.000000      0.000000     -0.015551
      5.20950      5.20950      2.77657         0.000000      0.000000      0.015551
      7.64244      5.20950      5.20950        -0.015551     -0.000000     -0.000000
      2.77657      5.20950      5.20950         0.015551      0.000000     -0.000000
      5.20950      2.43293      0.00000         0.000000     -0.015551      0.000000
      5.20950      7.98607      0.00000         0.000000      0.015551      0.000000
      5.20950      0.00000      2.43293         0.000000      0.000000     -0.015551
      5.20950      0.00000      7.98607         0.000000      0.000000      0.015551
      7.64244      0.00000      0.00000        -0.015551     -0.000000      0.000000
      2.77657      0.00000      0.00000         0.015551     -0.000000     -0.000000
      0.00000      7.64244      0.00000         0.000000     -0.015551      0.000000
      0.00000      2.77657      0.00000         0.000000      0.015551     -0.000000
      0.00000      5.20950      2.43293         0.000000      0.000000     -0.015551
      0.00000      5.20950      7.98607         0.000000      0.000000      0.015551
      2.43293      5.20950      0.00000        -0.015551     -0.000000      0.000000
      7.98607      5.20950      0.00000         0.015551      0.000000      0.000000
      0.00000      2.43293      5.20950         0.000000     -0.015551     -0.000000
      0.00000      7.98607      5.20950         0.000000      0.015551      0.000000
      0.00000      0.00000      7.64244         0.000000      0.000000     -0.015551
      0.00000      0.00000      2.77657         0.000000     -0.000000      0.015551
      2.43293      0.00000      5.20950        -0.015551      0.000000      0.000000
      7.98607      0.00000      5.20950         0.015551      0.000000      0.000000
 -----------------------------------------------------------------------------------
    total drift:                               -0.001086     -0.001086     -0.001086


--------------------------------------------------------------------------------------------------------



  FREE ENERGIE OF THE ION-ELECTRON SYSTEM (eV)
  ---------------------------------------------------
  free  energy   TOTEN  =      -133.88152060 eV

  energy  without entropy=     -133.88152060  energy(sigma->0) =     -133.88152060
 


--------------------------------------------------------------------------------------------------------


    POTLOK:  cpu time    0.5560: real time    0.5578


--------------------------------------------------------------------------------------------------------


 writing wavefunctions
     LOOP+:  cpu time 2654.1477: real time 2713.1809
    4ORBIT:  cpu time    0.0000: real time    0.0000
 


 total charge     
 
# of ion       s       p       d       tot
------------------------------------------
    1        1.835   4.714   0.022   6.571
    2        1.835   4.714   0.022   6.571
    3        1.835   4.714   0.022   6.571
    4        1.835   4.714   0.022   6.571
    5        1.835   4.714   0.022   6.571
    6        1.835   4.714   0.022   6.571
    7        1.835   4.714   0.022   6.571
    8        1.835   4.714   0.022   6.571
    9        0.145   0.098   9.157   9.400
   10        0.145   0.098   9.157   9.400
   11        0.145   0.098   9.157   9.400
   12        0.145   0.098   9.157   9.400
   13        2.057   5.902   4.937  12.895
   14        2.057   5.902   4.937  12.895
   15        2.057   5.902   4.937  12.895
   16        2.057   5.902   4.937  12.895
   17        1.597   3.533   0.000   5.130
   18        1.597   3.533   0.000   5.130
   19        1.597   3.531   0.000   5.128
   20        1.597   3.531   0.000   5.128
   21        1.596   3.533   0.000   5.129
   22        1.596   3.533   0.000   5.129
   23        1.597   3.533   0.000   5.130
   24        1.597   3.533   0.000   5.130
   25        1.597   3.531   0.000   5.128
   26        1.597   3.531   0.000   5.128
   27        1.596   3.533   0.000   5.129
   28        1.596   3.533   0.000   5.129
   29        1.597   3.533   0.000   5.130
   30        1.597   3.533   0.000   5.130
   31        1.597   3.531   0.000   5.128
   32        1.597   3.531   0.000   5.128
   33        1.596   3.533   0.000   5.129
   34        1.596   3.533   0.000   5.129
   35        1.597   3.533   0.000   5.130
   36        1.597   3.533   0.000   5.130
   37        1.597   3.531   0.000   5.128
   38        1.597   3.531   0.000   5.128
   39        1.596   3.533   0.000   5.129
   40        1.596   3.533   0.000   5.129
--------------------------------------------------
tot         61.808 146.489  56.549 264.846
 


 magnetization (x)
 
# of ion       s       p       d       tot
------------------------------------------
    1        0.000   0.001   0.000   0.002
    2        0.000   0.001   0.000   0.002
    3        0.000   0.001   0.000   0.002
    4        0.000   0.001   0.000   0.002
    5        0.000   0.001   0.000   0.002
    6        0.000   0.001   0.000   0.002
    7        0.000   0.001   0.000   0.002
    8        0.000   0.001   0.000   0.002
    9        0.011   0.007   0.048   0.066
   10        0.011   0.007   0.048   0.066
   11        0.011   0.007   0.048   0.066
   12        0.011   0.007   0.048   0.066
   13        0.012   0.011   3.866   3.889
   14        0.012   0.011   3.866   3.889
   15        0.012   0.011   3.866   3.889
   16        0.012   0.011   3.866   3.889
   17        0.005   0.085   0.000   0.089
   18        0.005   0.085   0.000   0.089
   19        0.004   0.085   0.000   0.089
   20        0.004   0.085   0.000   0.089
   21        0.005   0.085   0.000   0.091
   22        0.005   0.085   0.000   0.091
   23        0.005   0.085   0.000   0.089
   24        0.005   0.085   0.000   0.089
   25        0.004   0.085   0.000   0.089
   26        0.004   0.085   0.000   0.089
   27        0.005   0.085   0.000   0.091
   28        0.005   0.085   0.000   0.091
   29        0.005   0.085   0.000   0.089
   30        0.005   0.085   0.000   0.089
   31        0.004   0.085   0.000   0.089
   32        0.004   0.085   0.000   0.089
   33        0.005   0.085   0.000   0.091
   34        0.005   0.085   0.000   0.091
   35        0.005   0.085   0.000   0.089
   36        0.005   0.085   0.000   0.089
   37        0.004   0.085   0.000   0.089
   38        0.004   0.085   0.000   0.089
   39        0.005   0.085   0.000   0.091
   40        0.005   0.085   0.000   0.091
--------------------------------------------------
tot          0.206   2.119  15.658  17.983
 
 BZINTS: Fermi energy:  1.097046;348.000000 electrons
         Band energy:***********;  BLOECHL correction:  0.000000

 total amount of memory used by VASP MPI-rank0  1000278. kBytes
=======================================================================

   base      :      30000. kBytes
   nonl-proj :     604011. kBytes
   fftplans  :      12348. kBytes
   grid      :      96061. kBytes
   one-center:       1244. kBytes
   wavefun   :     256614. kBytes
 
  
  
 General timing and accounting informations for this job:
 ========================================================
  
                  Total CPU time used (sec):     2753.185
                            User time (sec):     2716.417
                          System time (sec):       36.768
                         Elapsed time (sec):     2826.167
  
                   Maximum memory used (kb):     1068456.
                   Average memory used (kb):           0.
  
                          Minor page faults:       254126
                          Major page faults:            0
                 Voluntary context switches:         7500
